     324
 i =        1, E =     -3905.1706517867
 Si         1.4516866591        1.4553084964       -0.0576738423
  O         1.2156580053        0.4366441674        1.1661918120
 Si         3.5173938729        3.5177129595        3.5013620063
 Si         1.0184737974        3.9845458078        1.7297403291
 Si         3.9856607074        1.0175294459        5.2617620408
  O         3.8007950911        4.5240085565        4.7242036110
  O         2.0088547751        3.7212101643        2.9690485157
  O         2.9627890528        1.2950045049        6.4704473800
  O         1.3028654291        2.9511683519        0.5287026099
  O         3.7109556171        2.0059045838        4.0229511562
  O         0.4507387744        1.1994461558        5.7750903038
  O         4.5285435270        3.8074369173        2.2807463619
 Si         6.4888068162        1.4613090626       -0.0462443916
  O         6.2299205911        0.4371223862        1.1655811475
 Si         8.5399791430        3.5169898133        3.5004779960
 Si         6.0326792543        3.9831728560        1.7301963255
 Si         9.0103659026        1.0153138984        5.2590354456
  O         8.8242770272        4.5200637079        4.7265679475
  O         7.0344726316        3.7241262579        2.9643699619
  O         7.9978458709        1.2939172289        6.4750493485
  O         6.3229154455        2.9601008320        0.5192723223
  O         8.7201000386        2.0033702420        4.0234425068
  O         5.4956228694        1.1959036480        5.7827353028
  O         9.5502511881        3.8116062183        2.2803993860
 Si        11.5133330300        1.4610974770       -0.0452969361
  O        11.2483543102        0.4336717931        1.1617521182
 Si        13.5792484909        3.5244414819        3.4917113545
 Si        11.0565887665        3.9815400196        1.7333129893
 Si        14.0262467416        1.0145732235        5.2598465609
  O        13.8385864154        4.5221076911        4.7302661003
  O        12.0695059075        3.7244912448        2.9601121241
  O        13.0231812615        1.2943979982        6.4799365402
  O        11.3347413617        2.9581026396        0.5198092117
  O        13.7473295913        2.0139430390        4.0335819677
  O        10.5193445056        1.1977273112        5.7814938782
  O        14.5984484736        3.8084450966        2.2791138551
 Si         1.4572740544        6.4912886249       -0.0691022707
  O         1.2124453780        5.4835441675        1.1644511033
 Si         3.5163165470        8.5399491844        3.5022885196
 Si         1.0164415128        9.0082985956        1.7314606827
 Si         3.9862412328        6.0311810869        5.2612728816
  O         3.8037547890        9.5457687189        4.7247174052
  O         2.0059356220        8.7307174427        2.9684424004
  O         2.9725508636        6.3157526822        6.4788290594
  O         1.3019764718        7.9813385948        0.5259797710
  O         3.7139265523        7.0309071854        4.0274502984
  O         0.4512577156        6.2145240658        5.7779221465
  O         4.5245877698        8.8332514360        2.2790654855
 Si         6.4948011706        6.4983443300       -0.0575674639
  O         6.2306028507        5.4836331949        1.1635298094
 Si         8.5394753392        8.5393243732        3.5016863336
 Si         6.0303262376        9.0074311007        1.7323109406
 Si         9.0110929345        6.0286065100        5.2588651875
  O         8.8248084435        9.5426968850        4.7272403478
  O         7.0327937763        8.7315213835        2.9621742906
  O         8.0087577099        6.3153504684        6.4840181944
  O         6.3228248964        7.9912902784        0.5169697052
  O         8.7217192270        7.0290836502        4.0297659769
  O         5.4975183590        6.2158146536        5.7839789564
  O         9.5474704461        8.8328484174        2.2786380920
 Si        11.5194752947        6.4976641513       -0.0557383067
  O        11.2492018336        5.4809352108        1.1614512102
 Si        13.5783239685        8.5464263359        3.4915972389
 Si        11.0545911255        9.0052413579        1.7347901867
 Si        14.0248384329        6.0293765781        5.2588711819
  O        13.8416620249        9.5446941599        4.7288446573
  O        12.0665428414        8.7304970719        2.9582853110
  O        13.0328136472        6.3166772346        6.4887315595
  O        11.3349333365        7.9893149411        0.5164594816
  O        13.7478709932        7.0383416433        4.0365788686
  O        10.5211731532        6.2178529817        5.7828078414
  O        14.5949483670        8.8334808864        2.2765826586
 Si         1.4570445186       11.5158090511       -0.0694484360
  O         1.2138068878       10.5062907480        1.1633991006
 Si         3.5246253417       13.5797198492        3.5125851150
 Si         1.0157488990       14.0220488035        1.7332373821
 Si         3.9840194074       11.0550209569        5.2587432186
  O         3.8039830106       14.5939008590        4.7275103818
  O         2.0171263994       13.7555399729        2.9601945822
  O         2.9708796409       11.3292269579        6.4792334285
  O         1.3021193357       13.0093836822        0.5196482556
  O         3.7138957191       12.0660221115        4.0324802770
  O         0.4475092662       11.2346089858        5.7811608176
  O         4.5256900308       13.8442890297        2.2750021956
 Si         6.4945777187       11.5218988601       -0.0579482738
  O         6.2320703746       10.5072061062        1.1640952803
 Si         8.5463813587       13.5794892527        3.5125958865
 Si         6.0302538149       14.0197968976        1.7337271522
 Si         9.0084155363       11.0530099396        5.2564139747
  O         8.8275377989       14.5900952187        4.7308761487
  O         7.0414740899       13.7554188317        2.9561598461
  O         8.0058674109       11.3285770832        6.4841001531
  O         6.3243045856       13.0185371492        0.5101521988
  O         8.7213497426       12.0641589329        4.0343541033
  O         5.4939201906       11.2366281251        5.7867217401
  O         9.5482706616       13.8475494920        2.2764965587
 Si        11.5187878879       11.5218044871       -0.0563584899
  O        11.2507332035       10.5038749625        1.1609133887
 Si        13.5868125658       13.5868870616        3.5025296264
 Si        11.0545045633       14.0177577430        1.7370964885
 Si        14.0223017295       11.0535194548        5.2561233158
  O        13.8366779189       14.5924031276        4.7346934358
  O        12.0776002384       13.7542506600        2.9511083424
  O        13.0312835026       11.3304302470        6.4892732584
  O        11.3363530797       13.0169829902        0.5102605891
  O        13.7465817821       12.0740334197        4.0419619234
  O        10.5174613467       11.2379120585        5.7855072810
  O        14.5968455241       13.8405293240        2.2722789997
 Si         1.4506473954        1.4529611377        7.0129151568
  O         1.1974801651        0.4459776529        8.2424928156
 Si         3.5190947298        3.5158989985       10.5171487385
 Si         1.0150363230        3.9849677827        8.7640699030
 Si         3.9860627927        1.0184892154       12.2737287617
  O         3.8031480021        4.5252938410       11.7363477122
  O         2.0081156795        3.7096850059        9.9952198696
  O         2.9629443125        1.2950886555       13.4822446313
  O         1.2944188377        2.9658490485        7.5510702332
  O         3.7118870858        2.0034866862       11.0332322898
  O         0.4509020764        1.1992533976       12.7860851543
  O         4.5212984160        3.7988069537        9.2896574608
 Si         6.4909760790        1.4601002554        7.0237835389
  O         6.2117094034        0.4486968396        8.2411422173
 Si         8.5403026095        3.5153537340       10.5166330113
 Si         6.0300112271        3.9847725987        8.7626524771
 Si         9.0106835299        1.0162192498       12.2705418018
  O         8.8250314263        4.5215535013       11.7390711664
  O         7.0324456498        3.7126584234        9.9902808537
  O         7.9973571707        1.2939396950       13.4858248062
  O         6.3131089246        2.9759140767        7.5394033587
  O         8.7211635587        2.0011141581       11.0333908153
  O         5.4962244188        1.1959893995       12.7933025210
  O         9.5428784890        3.8031741529        9.2906630339
 Si        11.5133686502        1.4595107079        7.0243272729
  O        11.2328786712        0.4441770810        8.2374581391
 Si        13.5820739338        3.5227318073       10.5064278271
 Si        11.0537346153        3.9830877474        8.7662557921
 Si        14.0264513559        1.0150186492       12.2716733493
  O        13.8407716630        4.5232492630       11.7420603843
  O        12.0696807302        3.7131189036        9.9847446561
  O        13.0228171099        1.2947184913       13.4911068527
  O        11.3261383315        2.9733916011        7.5411516955
  O        13.7479829712        2.0115114539       11.0438423347
  O        10.5198876229        1.1976355840       12.7917334044
  O        14.5891439691        3.8027919758        9.2844391000
 Si         1.4579908492        6.4927510930        7.0019683960
  O         1.1935308414        5.4935475800        8.2374605817
 Si         3.5182401698        8.5386508151       10.5180068940
 Si         1.0129388209        9.0090164741        8.7661635866
 Si         3.9867396897        6.0323278720       12.2726096676
  O         3.8054163470        9.5470442365       11.7373274122
  O         2.0055528761        8.7191723885        9.9944523677
  O         2.9723289883        6.3155439054       13.4896226962
  O         1.2922159726        8.0007233346        7.5450827446
  O         3.7136493276        7.0290261260       11.0377622717
  O         0.4515264742        6.2140806442       12.7892551537
  O         4.5174530861        8.8251058834        9.2879866589
 Si         6.4992725658        6.5003052474        7.0127188894
  O         6.2128772519        5.4947817936        8.2353515570
 Si         8.5401197496        8.5376259972       10.5175481018
 Si         6.0278714686        9.0096702397        8.7654402213
 Si         9.0111701172        6.0298079459       12.2706077385
  O         8.8266924252        9.5437621948       11.7395438134
  O         7.0308481390        8.7201739055        9.9887606102
  O         8.0079283515        6.3153575610       13.4950314597
  O         6.3129403748        8.0106209428        7.5354464745
  O         8.7232836381        7.0268531661       11.0395755606
  O         5.4979953132        6.2155495770       12.7947877312
  O         9.5398413548        8.8243837839        9.2882334857
 Si        11.5208395867        6.4999332049        7.0138070655
  O        11.2337531425        5.4917861373        8.2334404102
 Si        13.5812668714        8.5451671982       10.5061217030
 Si        11.0518035282        9.0072665125        8.7684082025
 Si        14.0251354294        6.0302249924       12.2709589621
  O        13.8424241738        9.5456533354       11.7410747195
  O        12.0666675779        8.7197459255        9.9836999946
  O        13.0326544509        6.3170010301       13.5003356331
  O        11.3258733074        8.0091737443        7.5351527744
  O        13.7487019675        7.0369374318       11.0476820773
  O        10.5211938644        6.2170499675       12.7945420006
  O        14.5855908097        8.8282638352        9.2817359686
 Si         1.4575116502       11.5147511650        7.0013601036
  O         1.1950307921       10.5165686099        8.2381384623
 Si         3.5257928787       13.5782121069       10.5285104354
 Si         1.0121997101       14.0236773602        8.7660709725
 Si         3.9842598477       11.0560123078       12.2706957057
  O         3.8060956367       14.5955295424       11.7398037761
  O         2.0164273037       13.7458479105        9.9849578350
  O         2.9710477137       11.3285985305       13.4913923322
  O         1.2927612424       13.0253571735        7.5405308799
  O         3.7136068567       12.0637547903       11.0430304105
  O         0.4479265369       11.2346385201       12.7920125260
  O         4.5191388478       13.8372630915        9.2852378392
 Si         6.4979370270       11.5222402664        7.0126244442
  O         6.2142631581       10.5194419229        8.2384257686
 Si         8.5468560924       13.5780445534       10.5282698540
 Si         6.0276168244       14.0232286299        8.7648724078
 Si         9.0085677878       11.0538489391       12.2681743489
  O         8.8279200833       14.5917183187       11.7431660762
  O         7.0401112449       13.7457445371        9.9802903119
  O         8.0054355943       11.3285674653       13.4953632741
  O         6.3146098431       13.0360542589        7.5293474796
  O         8.7229374087       12.0622711448       11.0446698950
  O         5.4945545944       11.2359175997       12.7971176586
  O         9.5410346573       13.8408633297        9.2864327434
 Si        11.5202596528       11.5212655507        7.0130577112
  O        11.2369872517       10.5153006516        8.2355128781
 Si        13.5889432865       13.5851133501       10.5175556062
 Si        11.0515278247       14.0203988855        8.7681565580
 Si        14.0226513544       11.0539879974       12.2682770283
  O        13.8386533845       14.5931781726       11.7469320336
  O        12.0779267616       13.7449791972        9.9739328199
  O        13.0310293841       11.3303516624       13.5008086348
  O        11.3277361318       13.0332889734        7.5300698927
  O        13.7476935396       12.0716590616       11.0526055784
  O        10.5177206162       11.2376739876       12.7963199682
  O        14.5882917093       13.8358155202        9.2793338869
 Si         1.4506281373        1.4533817231       14.0237209567
  O         1.1971115948        0.4450604670       15.2521680240
 Si         3.5218428556        3.5169641772       17.5339158746
 Si         1.0157259485        3.9844934779       15.7763120176
 Si         3.9664185897        1.0222823740       19.3142280841
  O         3.8032484686        4.5295048723       18.7541951339
  O         2.0118059783        3.7092283409       17.0059811339
  O         2.9766035125        1.2940643827       20.5546584698
  O         1.2947684825        2.9662777868       14.5621505881
  O         3.7182695564        2.0089105044       18.0665304500
  O         0.4146494435        1.1980309017       19.8537029070
  O         4.5198291571        3.7985988212       16.3013136953
 Si         6.4906856665        1.4604012257       14.0346345089
  O         6.2108647196        0.4484252947       15.2513628326
 Si         8.5425081017        3.5168411575       17.5339024596
 Si         6.0296152486        3.9839345309       15.7748288252
 Si         8.9899042625        1.0200818821       19.3108886123
  O         8.8244543575        4.5259118795       18.7574925267
  O         7.0359272652        3.7121363938       17.0003840953
  O         8.0039516031        1.2917827959       20.5533253725
  O         6.3120916104        2.9760585477       14.5504376263
  O         8.7277575875        2.0070889677       18.0667745492
  O         5.4681954018        1.1956904825       19.8521697676
  O         9.5429164127        3.8018984168       16.3043126427
 Si        11.5129661731        1.4598152324       14.0349366286
  O        11.2330605359        0.4436369058       15.2474854115
 Si        13.5836362890        3.5248225454       17.5223570327
 Si        11.0537442381        3.9824092327       15.7780515057
 Si        14.0036693053        1.0184032949       19.3074693238
  O        13.8407812696        4.5266452885       18.7597208744
  O        12.0719209681        3.7114536276       16.9952185787
  O        13.0315846643        1.2921485724       20.5570765784
  O        11.3248444427        2.9736393324       14.5516051523
  O        13.7528539325        2.0175493384       18.0736306052
  O        10.4892873691        1.1974395047       19.8547224923
  O        14.5889150052        3.8017595566       16.2969499151
 Si         1.4580372466        6.4934873985       14.0129055590
  O         1.1930017532        5.4925876436       15.2469659812
 Si         3.5209834809        8.5404318038       17.5345212028
 Si         1.0134340465        9.0086278764       15.7785565107
 Si         3.9658386980        6.0344190195       19.3112835870
  O         3.8050721474        9.5524018432       18.7542989601
  O         2.0092717953        8.7186164267       17.0050026157
  O         2.9866878900        6.3141824562       20.5617379362
  O         1.2919944990        8.0016012576       14.5560158053
  O         3.7197726699        7.0357278161       18.0718159627
  O         0.4147227481        6.2127220888       19.8543168746
  O         4.5165744752        8.8234350989       16.2995384539
 Si         6.4987045491        6.5003630364       14.0239449494
  O         6.2124089630        5.4933696333       15.2454144077
 Si         8.5420733320        8.5396382291       17.5346958458
 Si         6.0278015443        9.0091531202       15.7775711649
 Si         8.9890371150        6.0323205710       19.3089107947
  O         8.8270925034        9.5488524988       18.7572030755
  O         7.0337574723        8.7197750869       16.9995129184
  O         8.0149391751        6.3136738446       20.5619158321
  O         6.3122554802        8.0107107195       14.5466989042
  O         8.7301889206        7.0332847145       18.0722210471
  O         5.4679450725        6.2153231901       19.8524018523
  O         9.5398749401        8.8232673065       16.3019125726
 Si        11.5206629699        6.5005832233       14.0249732017
  O        11.2337392653        5.4906776255       15.2432563102
 Si        13.5827315838        8.5478092280       17.5224393347
 Si        11.0519033745        9.0067562094       15.7804856432
 Si        14.0016900984        6.0324889898       19.3057015579
  O        13.8415862536        9.5495501306       18.7591362252
  O        12.0689419333        8.7194642923       16.9947603983
  O        13.0429309978        6.3151481071       20.5668521747
  O        11.3255049136        8.0101420283       14.5456808721
  O        13.7538879765        7.0438220915       18.0780447545
  O        10.4884892754        6.2161789359       19.8568349827
  O        14.5854388248        8.8260417334       16.2945166080
 Si         1.4574724131       11.5149127193       14.0123151201
  O         1.1944281794       10.5157219998       15.2481551476
 Si         3.5278368526       13.5783221851       17.5451470188
 Si         1.0126081737       14.0231853614       15.7784226315
 Si         3.9638779569       11.0583942967       19.3097388214
  O         3.8047804340       14.6020149465       18.7547943288
  O         2.0194976966       13.7451931402       16.9958827281
  O         2.9852737652       11.3252411649       20.5639127760
  O         1.2924148348       13.0253852467       14.5519536487
  O         3.7188541927       12.0685753818       18.0761974750
  O         0.4113594565       11.2323055490       19.8583020167
  O         4.5187356836       13.8368947388       16.2985553522
 Si         6.4974807107       11.5226577453       14.0233403425
  O         6.2128544421       10.5183724333       15.2477059263
 Si         8.5489549110       13.5784764661       17.5448794567
 Si         6.0275597849       14.0231103513       15.7770328731
 Si         8.9873736644       11.0565792690       19.3066084517
  O         8.8258552007       14.5981504406       18.7585473402
  O         7.0436297397       13.7451805212       16.9902396568
  O         8.0131346678       11.3254479762       20.5625163350
  O         6.3139889601       13.0364233839       14.5406493533
  O         8.7291739892       12.0672040752       18.0766133397
  O         5.4649870144       11.2338573385       19.8560648750
  O         9.5411854377       13.8396108777       16.2999918695
 Si        11.5199650136       11.5213795829       14.0238373616
  O        11.2378321636       10.5141113914       15.2453733075
 Si        13.5899864097       13.5863186557       17.5334750264
 Si        11.0515347984       14.0201080842       15.7799102453
 Si        13.9996032103       11.0563634381       19.3034851455
  O        13.8372586829       14.5981237498       18.7625441306
  O        12.0799272083       13.7440047068       16.9844372859
  O        13.0403755064       11.3266680315       20.5672145589
  O        11.3268341923       13.0332227047       14.5411559115
  O        13.7524171089       12.0771976850       18.0826040113
  O        10.4857152576       11.2364448909       19.8595168875
  O        14.5881629814       13.8346031810       16.2927433115
     324
 i =        2, E =     -3905.2998912454
 Si         1.3978436574        1.3947000585       -0.1071696916
  O         1.1872718854        0.3335032554        1.0882474412
 Si         3.5253746137        3.5243388855        3.4880479978
 Si         1.0120933164        3.9410405550        1.7054787467
 Si         3.9614439871        1.0039462065        5.2441446184
  O         3.7805244521        4.5298829956        4.7169300738
  O         2.0184533601        3.7309242495        2.9435911824
  O         2.9192184909        1.2574570440        6.4387458089
  O         1.2664764535        2.8795856716        0.5211562641
  O         3.7065319619        2.0097621683        4.0126177629
  O         0.3604857456        1.1812338448        5.8044119615
  O         4.5479325212        3.7961358581        2.2704858585
 Si         6.4746094468        1.4030948514       -0.0907122590
  O         6.2302403768        0.3489324092        1.0951676371
 Si         8.5570752330        3.5212879908        3.4924430841
 Si         6.0465750890        3.9488337128        1.6985102514
 Si         9.0004964647        1.0024265390        5.2487734802
  O         8.8279531304        4.5244120136        4.7217075494
  O         7.0585356398        3.7305666476        2.9351014944
  O         7.9840460929        1.2576968500        6.4642415609
  O         6.3027078683        2.8910200565        0.5048503292
  O         8.7193961512        2.0032508843        4.0186473207
  O         5.4614109738        1.1814537062        5.7935366145
  O         9.5844341346        3.7978505901        2.2797295630
 Si        11.4987349767        1.4004483365       -0.0919177537
  O        11.2537713518        0.3476325858        1.0931893935
 Si        13.6306819261        3.5349863177        3.4716398742
 Si        11.0826620458        3.9463291543        1.6996927091
 Si        14.0306769775        1.0079707736        5.2522972335
  O        13.8493584557        4.5384624645        4.7196134386
  O        12.1254405845        3.7303594810        2.9131294792
  O        13.0254568384        1.2604428972        6.4721173550
  O        11.3323568285        2.8871900059        0.5053826259
  O        13.7807169608        2.0235204027        4.0336183248
  O        10.5055757550        1.1810961873        5.7817821785
  O        14.6787066914        3.7979738276        2.2780149981
 Si         1.4038941623        6.4602298521       -0.1273585525
  O         1.1867906829        5.4247876000        1.0922105061
 Si         3.5242565516        8.5557647400        3.4840656765
 Si         1.0102901543        8.9775781598        1.7044543601
 Si         3.9678397856        6.0384336254        5.2517090568
  O         3.7777443206        9.5697976716        4.7073756969
  O         2.0138898979        8.7430151460        2.9394455781
  O         2.9324525637        6.3056638841        6.4557442229
  O         1.2678209533        7.9375700527        0.5045139389
  O         3.7096268227        7.0480326135        4.0183558117
  O         0.3799472510        6.2106534331        5.7925653843
  O         4.5396479659        8.8483732164        2.2635866610
 Si         6.4788184484        6.4746273420       -0.1107356891
  O         6.2338647693        5.4389334146        1.0948842430
 Si         8.5547714024        8.5525364357        3.4881851863
 Si         6.0423565465        8.9869015673        1.6990467568
 Si         9.0096150540        6.0349197780        5.2530568101
  O         8.8250626733        9.5644942653        4.7112900871
  O         7.0528102480        8.7432263774        2.9306726990
  O         8.0026188006        6.3077461263        6.4784934034
  O         6.3019125992        7.9555933512        0.4862592402
  O         8.7196534045        7.0421163987        4.0254474273
  O         5.4759160598        6.2128431010        5.7908421768
  O         9.5789033185        8.8444537351        2.2745499318
 Si        11.5086051597        6.4714005275       -0.1140717429
  O        11.2563394236        5.4354391475        1.0882471893
 Si        13.6299194027        8.5663112404        3.4661806123
 Si        11.0799477094        8.9828066854        1.7012935486
 Si        14.0396434445        6.0415951210        5.2572381295
  O        13.8460207229        9.5773835081        4.7090305754
  O        12.1203598534        8.7461685699        2.9116853525
  O        13.0430197566        6.3114022801        6.4858137250
  O        11.3340395394        7.9492892437        0.4890118670
  O        13.7874375433        7.0627304149        4.0389539760
  O        10.5218599333        6.2149199211        5.7762762535
  O        14.6749208138        8.8440984976        2.2716646584
 Si         1.3981940745       11.4936939749       -0.1230496343
  O         1.1860777193       10.4645563048        1.1030011011
 Si         3.5350982330       13.6289049771        3.5026220537
 Si         1.0170602598       14.0123412819        1.6953356345
 Si         3.9650602313       11.0763033086        5.2526093605
  O         3.7814315121       14.6620952706        4.7063360695
  O         2.0299823563       13.8076447926        2.9236835463
  O         2.9272109680       11.3266721383        6.4584988469
  O         1.2712187453       12.9834177132        0.4900881650
  O         3.7083619085       12.1168221073        4.0430734268
  O         0.3769996331       11.2516713353        5.7960270994
  O         4.5573442766       13.8614442685        2.2659341306
 Si         6.4759203242       11.5053651394       -0.1079552686
  O         6.2387669359       10.4786543145        1.1067965609
 Si         8.5690748627       13.6265028407        3.5087770202
 Si         6.0509082544       14.0194263014        1.6909438999
 Si         9.0045392652       11.0725172223        5.2545030652
  O         8.8280643310       14.6596651129        4.7117534763
  O         7.0736121948       13.8082646547        2.9143914783
  O         7.9958761762       11.3278215716        6.4825694991
  O         6.3076151097       12.9962811820        0.4756100803
  O         8.7233492954       12.1107842799        4.0490510019
  O         5.4716316421       11.2505990028        5.7971309775
  O         9.5947325772       13.8638786085        2.2761296965
 Si        11.5042254032       11.5015868371       -0.1098440726
  O        11.2544620862       10.4740958469        1.0997091151
 Si        13.6370763066       13.6343157827        3.4872242499
 Si        11.0863109487       14.0169296860        1.6897442208
 Si        14.0372537020       11.0769231397        5.2600475995
  O        13.8510559166       14.6754850897        4.7013040509
  O        12.1351469309       13.8090822017        2.8934830218
  O        13.0371762351       11.3320008064        6.4889765040
  O        11.3378797316       12.9905660946        0.4755536000
  O        13.7835918036       12.1254002099        4.0639861326
  O        10.5150758145       11.2490444168        5.7844704978
  O        14.6938367085       13.8635988290        2.2829869487
 Si         1.4100956707        1.4076891530        7.0125484517
  O         1.1774574319        0.3662111194        8.2200109583
 Si         3.5150496763        3.5143256394       10.5181753962
 Si         0.9992134366        3.9619660675        8.7709470033
 Si         3.9647248285        0.9988366565       12.2625165371
  O         3.7883697657        4.5247779792       11.7368735731
  O         2.0017970410        3.7121824398        9.9980079408
  O         2.9195432554        1.2594018348       13.4524863822
  O         1.2553566754        2.9170379389        7.5757070622
  O         3.7113153123        1.9997138875       11.0300550717
  O         0.3632637673        1.1832749895       12.8172189921
  O         4.5217335588        3.7781310003        9.2898874601
 Si         6.4783875894        1.4175708062        7.0311700776
  O         6.2066576539        0.3829230833        8.2281557578
 Si         8.5464840743        3.5120187990       10.5217438747
 Si         6.0302205435        3.9695432627        8.7647335478
 Si         9.0028320997        0.9973520392       12.2671511075
  O         8.8322724462        4.5187741946       11.7426959272
  O         7.0408765048        3.7147199785        9.9892307183
  O         7.9854047498        1.2598099455       13.4796408161
  O         6.3080945803        2.9320469258        7.5617642456
  O         8.7254845237        1.9942232277       11.0361058991
  O         5.4641248125        1.1828348409       12.8084589579
  O         9.5633117105        3.7823996247        9.3023203617
 Si        11.5123858849        1.4157425011        7.0275848142
  O        11.2478557736        0.3802812858        8.2233172004
 Si        13.6200342849        3.5260504768       10.5014621268
 Si        11.0699019030        3.9667646901        8.7645779337