Comment 

          400 atoms
           0  bonds
           0 angles
           0 dihedrals
           0 impropers
 
           2 atom types
           0 bond types
           0 angle types
           0 dihedral types
           0 improper types

           0.0 19.28532 xlo xhi
           0.0 15.27894 ylo yhi
           0.0 15.41482 zlo zhi

Masses

           1    69.723 # Ga
           2    15.999 # O core
           

Atoms  

1	1	1	3	9.7377004	2.62685834	1.02075295
2	2	1	3	5.0663199	6.76273884	2.50894795
3	3	1	3	4.8762391	1.50902216	0.46744205
4	4	1	3	0.2048586	5.64490266	1.95563705
5	5	1	3	7.64652686	7.60486206	0.30537761
6	6	1	3	3.16809136	4.10370756	1.79357261
7	7	1	3	6.77446764	4.16805344	1.18281739
8	8	1	3	2.29603214	0.66689894	2.67101239
9	9	1	3	10.2305444	3.26158434	3.99714295
10	10	1	3	5.5591639	7.39746484	5.48533795
11	11	1	3	5.3690831	2.14374816	3.44383205
12	12	1	3	0.6977026	6.27962866	4.93202705
13	13	1	3	8.13937086	8.23958806	3.28176761
14	14	1	3	3.66093536	4.73843356	4.76996261
15	15	1	3	7.26731164	4.80277944	4.15920739
16	16	1	3	2.78887614	1.30162494	5.64740239
17	17	1	3	10.7233884	3.89631034	6.97353295
18	18	1	3	6.0520079	8.03219084	8.46172795
19	19	1	3	5.8619271	2.77847416	6.42022205
20	20	1	3	1.1905466	6.91435466	7.90841705
21	21	1	3	8.63221486	8.87431406	6.25815761
22	22	1	3	4.15377936	5.37315956	7.74635261
23	23	1	3	7.76015564	5.43750544	7.13559739
24	24	1	3	3.28172014	1.93635094	8.62379239
25	25	1	3	11.2162324	4.53103634	9.94992295
26	26	1	3	6.5448519	8.66691684	11.43811795
27	27	1	3	6.3547711	3.41320016	9.39661205
28	28	1	3	1.6833906	7.54908066	10.88480705
29	29	1	3	9.12505886	9.50904006	9.23454761
30	30	1	3	4.64662336	6.00788556	10.72274261
31	31	1	3	8.25299964	6.07223144	10.11198739
32	32	1	3	3.77456414	2.57107694	11.60018239
33	33	1	3	11.7090764	5.16576234	12.92631295
34	34	1	3	7.0376959	9.30164284	14.41450795
35	35	1	3	6.8476151	4.04792616	12.37300205
36	36	1	3	2.1762346	8.18380666	13.86119705
37	37	1	3	9.61790286	10.14376606	12.21093761
38	38	1	3	5.13946736	6.64261156	13.69913261
39	39	1	3	8.74584364	6.70695744	13.08837739
40	40	1	3	4.26740814	3.20580294	14.57657239
41	41	1	3	9.5447554	10.26389334	1.02075295
42	42	1	3	4.8733749	14.39977384	2.50894795
43	43	1	3	4.6832941	9.14605716	0.46744205
44	44	1	3	0.0119136	13.28193766	1.95563705
45	45	1	3	7.45358186	15.24189706	0.30537761
46	46	1	3	2.97514636	11.74074256	1.79357261
47	47	1	3	6.58152264	11.80508844	1.18281739
48	48	1	3	2.10308714	8.30393394	2.67101239
49	49	1	3	10.0375994	10.89861934	3.99714295
50	50	1	3	5.3662189	15.03449984	5.48533795
51	51	1	3	5.1761381	9.78078316	3.44383205
52	52	1	3	0.5047576	13.91666366	4.93202705
53	53	1	3	7.94642586	15.87662306	3.28176761
54	54	1	3	3.46799036	12.37546856	4.76996261
55	55	1	3	7.07436664	12.43981444	4.15920739
56	56	1	3	2.59593114	8.93865994	5.64740239
57	57	1	3	10.5304434	11.53334534	6.97353295
58	58	1	3	5.8590629	15.66922584	8.46172795
59	59	1	3	5.6689821	10.41550916	6.42022205
60	60	1	3	0.9976016	14.55138966	7.90841705
61	61	1	3	8.43926986	16.51134906	6.25815761
62	62	1	3	3.96083436	13.01019456	7.74635261
63	63	1	3	7.56721064	13.07454044	7.13559739
64	64	1	3	3.08877514	9.57338594	8.62379239
65	65	1	3	11.0232874	12.16807134	9.94992295
66	66	1	3	6.3519069	16.30395184	11.43811795
67	67	1	3	6.1618261	11.05023516	9.39661205
68	68	1	3	1.4904456	15.18611566	10.88480705
69	69	1	3	8.93211386	17.14607506	9.23454761
70	70	1	3	4.45367836	13.64492056	10.72274261
71	71	1	3	8.06005464	13.70926644	10.11198739
72	72	1	3	3.58161914	10.20811194	11.60018239
73	73	1	3	11.5161314	12.80279734	12.92631295
74	74	1	3	6.8447509	16.93867784	14.41450795
75	75	1	3	6.6546701	11.68496116	12.37300205
76	76	1	3	1.9832896	15.82084166	13.86119705
77	77	1	3	9.42495786	17.78080106	12.21093761
78	78	1	3	4.94652236	14.27964656	13.69913261
79	79	1	3	8.55289864	14.34399244	13.08837739
80	80	1	3	4.07446314	10.84283794	14.57657239
81	81	1	3	19.3803604	2.62685834	1.02075295
82	82	1	3	14.7089799	6.76273884	2.50894795
83	83	1	3	14.5188991	1.50902216	0.46744205
84	84	1	3	9.8475186	5.64490266	1.95563705
85	85	1	3	17.28918686	7.60486206	0.30537761
86	86	1	3	12.81075136	4.10370756	1.79357261
87	87	1	3	16.41712764	4.16805344	1.18281739
88	88	1	3	11.93869214	0.66689894	2.67101239
89	89	1	3	19.8732044	3.26158434	3.99714295
90	90	1	3	15.2018239	7.39746484	5.48533795
91	91	1	3	15.0117431	2.14374816	3.44383205
92	92	1	3	10.3403626	6.27962866	4.93202705
93	93	1	3	17.78203086	8.23958806	3.28176761
94	94	1	3	13.30359536	4.73843356	4.76996261
95	95	1	3	16.90997164	4.80277944	4.15920739
96	96	1	3	12.43153614	1.30162494	5.64740239
97	97	1	3	20.3660484	3.89631034	6.97353295
98	98	1	3	15.6946679	8.03219084	8.46172795
99	99	1	3	15.5045871	2.77847416	6.42022205
100	100	1	3	10.8332066	6.91435466	7.90841705
101	101	1	3	18.27487486	8.87431406	6.25815761
102	102	1	3	13.79643936	5.37315956	7.74635261
103	103	1	3	17.40281564	5.43750544	7.13559739
104	104	1	3	12.92438014	1.93635094	8.62379239
105	105	1	3	20.8588924	4.53103634	9.94992295
106	106	1	3	16.1875119	8.66691684	11.43811795
107	107	1	3	15.9974311	3.41320016	9.39661205
108	108	1	3	11.3260506	7.54908066	10.88480705
109	109	1	3	18.76771886	9.50904006	9.23454761
110	110	1	3	14.28928336	6.00788556	10.72274261
111	111	1	3	17.89565964	6.07223144	10.11198739
112	112	1	3	13.41722414	2.57107694	11.60018239
113	113	1	3	21.3517364	5.16576234	12.92631295
114	114	1	3	16.6803559	9.30164284	14.41450795
115	115	1	3	16.4902751	4.04792616	12.37300205
116	116	1	3	11.8188946	8.18380666	13.86119705
117	117	1	3	19.26056286	10.14376606	12.21093761
118	118	1	3	14.78212736	6.64261156	13.69913261
119	119	1	3	18.38850364	6.70695744	13.08837739
120	120	1	3	13.91006814	3.20580294	14.57657239
121	121	1	3	19.1874154	10.26389334	1.02075295
122	122	1	3	14.5160349	14.39977384	2.50894795
123	123	1	3	14.3259541	9.14605716	0.46744205
124	124	1	3	9.6545736	13.28193766	1.95563705
125	125	1	3	17.09624186	15.24189706	0.30537761
126	126	1	3	12.61780636	11.74074256	1.79357261
127	127	1	3	16.22418264	11.80508844	1.18281739
128	128	1	3	11.74574714	8.30393394	2.67101239
129	129	1	3	19.6802594	10.89861934	3.99714295
130	130	1	3	15.0088789	15.03449984	5.48533795
131	131	1	3	14.8187981	9.78078316	3.44383205
132	132	1	3	10.1474176	13.91666366	4.93202705
133	133	1	3	17.58908586	15.87662306	3.28176761
134	134	1	3	13.11065036	12.37546856	4.76996261
135	135	1	3	16.71702664	12.43981444	4.15920739
136	136	1	3	12.23859114	8.93865994	5.64740239
137	137	1	3	20.1731034	11.53334534	6.97353295
138	138	1	3	15.5017229	15.66922584	8.46172795
139	139	1	3	15.3116421	10.41550916	6.42022205
140	140	1	3	10.6402616	14.55138966	7.90841705
141	141	1	3	18.08192986	16.51134906	6.25815761
142	142	1	3	13.60349436	13.01019456	7.74635261
143	143	1	3	17.20987064	13.07454044	7.13559739
144	144	1	3	12.73143514	9.57338594	8.62379239
145	145	1	3	20.6659474	12.16807134	9.94992295
146	146	1	3	15.9945669	16.30395184	11.43811795
147	147	1	3	15.8044861	11.05023516	9.39661205
148	148	1	3	11.1331056	15.18611566	10.88480705
149	149	1	3	18.57477386	17.14607506	9.23454761
150	150	1	3	14.09633836	13.64492056	10.72274261
151	151	1	3	17.70271464	13.70926644	10.11198739
152	152	1	3	13.22427914	10.20811194	11.60018239
153	153	1	3	21.1587914	12.80279734	12.92631295
154	154	1	3	16.4874109	16.93867784	14.41450795
155	155	1	3	16.2973301	11.68496116	12.37300205
156	156	1	3	11.6259496	15.82084166	13.86119705
157	157	1	3	19.06761786	17.78080106	12.21093761
158	158	1	3	14.58918236	14.27964656	13.69913261
159	159	1	3	18.19555864	14.34399244	13.08837739
160	160	1	3	13.71712314	10.84283794	14.57657239
161	1	2	-2	1.43537219	1.18402092	1.10647298
162	2	2	-2	6.40665169	5.31990142	2.59466798
163	3	2	-2	3.53590731	2.95185958	0.38172202
164	4	2	-2	8.50718681	7.08774008	1.86991702
165	5	2	-2	5.79090513	7.43729489	0.64840656
166	6	2	-2	1.31246963	3.93614039	2.13660156
167	7	2	-2	8.63008937	4.33562061	0.83978844
168	8	2	-2	4.15165387	0.83446611	2.32798344
169	9	2	-2	0.92721594	6.00690668	0.16221326
170	10	2	-2	6.09144044	2.50575218	1.65040825
171	11	2	-2	3.85111856	5.76600882	1.32598174
172	12	2	-2	9.01534306	2.26485432	2.81417674
173	13	2	-2	1.92821619	1.81874692	4.08286298
174	14	2	-2	6.89949569	5.95462742	5.57105798
175	15	2	-2	4.02875131	3.58658558	3.35811202
176	16	2	-2	9.00003081	7.72246608	4.84630702
177	17	2	-2	6.28374913	8.07202089	3.62479656
178	18	2	-2	1.80531363	4.57086639	5.11299156
179	19	2	-2	9.12293337	4.97034661	3.81617844
180	20	2	-2	4.64449787	1.46919211	5.30437344
181	21	2	-2	1.42005994	6.64163268	3.13860326
182	22	2	-2	6.58428444	3.14047818	4.62679825
183	23	2	-2	4.34396256	6.40073482	4.30237175
184	24	2	-2	9.50818706	2.89958032	5.79056674
185	25	2	-2	2.42106019	2.45347292	7.05925298
186	26	2	-2	7.39233969	6.58935342	8.54744798
187	27	2	-2	4.52159531	4.22131158	6.33450202
188	28	2	-2	9.49287481	8.35719208	7.82269702
189	29	2	-2	6.77659313	8.70674689	6.60118656
190	30	2	-2	2.29815763	5.20559239	8.08938156
191	31	2	-2	9.61577737	5.60507261	6.79256844
192	32	2	-2	5.13734187	2.10391811	8.28076344
193	33	2	-2	1.91290394	7.27635868	6.11499325
194	34	2	-2	7.07712844	3.77520418	7.60318826
195	35	2	-2	4.83680656	7.03546082	7.27876174
196	36	2	-2	10.00103106	3.53430632	8.76695674
197	37	2	-2	2.91390419	3.08819892	10.03564298
198	38	2	-2	7.88518369	7.22407942	11.52383798
199	39	2	-2	5.01443931	4.85603758	9.31089202
200	40	2	-2	9.98571881	8.99191808	10.79908702
201	41	2	-2	7.26943713	9.34147289	9.57757656
202	42	2	-2	2.79100163	5.84031839	11.06577156
203	43	2	-2	10.10862137	6.23979861	9.76895844
204	44	2	-2	5.63018587	2.73864411	11.25715344
205	45	2	-2	2.40574794	7.91108468	9.09138326
206	46	2	-2	7.56997244	4.40993018	10.57957825
207	47	2	-2	5.32965056	7.67018682	10.25515175
208	48	2	-2	10.49387506	4.16903232	11.74334675
209	49	2	-2	3.40674819	3.72292492	13.01203298
210	50	2	-2	8.37802769	7.85880542	14.50022798
211	51	2	-2	5.50728331	5.49076358	12.28728202
212	52	2	-2	10.47856281	9.62664408	13.77547702
213	53	2	-2	7.76228113	9.97619889	12.55396656
214	54	2	-2	3.28384563	6.47504439	14.04216156
215	55	2	-2	10.60146537	6.87452461	12.74534844
216	56	2	-2	6.12302987	3.37337011	14.23354344
217	57	2	-2	2.89859194	8.54581068	12.06777325
218	58	2	-2	8.06281644	5.04465618	13.55596825
219	59	2	-2	5.82249456	8.30491282	13.23154174
220	60	2	-2	10.98671906	4.80375832	14.71973674
221	61	2	-2	1.24242719	8.82105592	1.10647298
222	62	2	-2	6.21370669	12.95693642	2.59466798
223	63	2	-2	3.34296231	10.58889458	0.38172202
224	64	2	-2	8.31424181	14.72477508	1.86991702
225	65	2	-2	5.59796013	15.07432989	0.64840656
226	66	2	-2	1.11952463	11.57317539	2.13660156
227	67	2	-2	8.43714437	11.97265561	0.83978844
228	68	2	-2	3.95870887	8.47150111	2.32798344
229	69	2	-2	0.73427094	13.64394168	0.16221326
230	70	2	-2	5.89849544	10.14278718	1.65040825
231	71	2	-2	3.65817356	13.40304382	1.32598174
232	72	2	-2	8.82239806	9.90188932	2.81417674
233	73	2	-2	1.73527119	9.45578192	4.08286298
234	74	2	-2	6.70655069	13.59166242	5.57105798
235	75	2	-2	3.83580631	11.22362058	3.35811202
236	76	2	-2	8.80708581	15.35950108	4.84630702
237	77	2	-2	6.09080413	15.70905589	3.62479656
238	78	2	-2	1.61236863	12.20790139	5.11299156
239	79	2	-2	8.92998837	12.60738161	3.81617844
240	80	2	-2	4.45155287	9.10622711	5.30437344
241	1	2	-2	1.22711494	14.27866768	3.13860326
242	2	2	-2	6.39133944	10.77751318	4.62679825
243	3	2	-2	4.15101756	14.03776982	4.30237175
244	4	2	-2	9.31524206	10.53661532	5.79056674
245	5	2	-2	2.22811519	10.09050792	7.05925298
246	6	2	-2	7.19939469	14.22638842	8.54744798
247	7	2	-2	4.32865031	11.85834658	6.33450202
248	8	2	-2	9.29992981	15.99422708	7.82269702
249	9	2	-2	6.58364813	16.34378189	6.60118656
250	10	2	-2	2.10521263	12.84262739	8.08938156
251	11	2	-2	9.42283237	13.24210761	6.79256844
252	12	2	-2	4.94439687	9.74095311	8.28076344
253	13	2	-2	1.71995894	14.91339368	6.11499325
254	14	2	-2	6.88418344	11.41223918	7.60318826
255	15	2	-2	4.64386156	14.67249582	7.27876174
256	16	2	-2	9.80808606	11.17134132	8.76695674
257	17	2	-2	2.72095919	10.72523392	10.03564298
258	18	2	-2	7.69223869	14.86111442	11.52383798
259	19	2	-2	4.82149431	12.49307258	9.31089202
260	20	2	-2	9.79277381	16.62895308	10.79908702
261	21	2	-2	7.07649213	16.97850789	9.57757656
262	22	2	-2	2.59805663	13.47735339	11.06577156
263	23	2	-2	9.91567637	13.87683361	9.76895844
264	24	2	-2	5.43724087	10.37567911	11.25715344
265	25	2	-2	2.21280294	15.54811968	9.09138326
266	26	2	-2	7.37702744	12.04696518	10.57957825
267	27	2	-2	5.13670556	15.30722182	10.25515175
268	28	2	-2	10.30093006	11.80606732	11.74334675
269	29	2	-2	3.21380319	11.35995992	13.01203298
270	30	2	-2	8.18508269	15.49584042	14.50022798
271	31	2	-2	5.31433831	13.12779858	12.28728202
272	32	2	-2	10.28561781	17.26367908	13.77547702
273	33	2	-2	7.56933613	17.61323389	12.55396656
274	34	2	-2	3.09090063	14.11207939	14.04216156
275	35	2	-2	10.40852037	14.51155961	12.74534844
276	36	2	-2	5.93008487	11.01040511	14.23354344
277	37	2	-2	2.70564694	16.18284568	12.06777325
278	38	2	-2	7.86987144	12.68169118	13.55596825
279	39	2	-2	5.62954956	15.94194782	13.23154174
280	40	2	-2	10.79377406	12.44079332	14.71973674
281	41	2	-2	11.07803219	1.18402092	1.10647298
282	42	2	-2	16.04931169	5.31990142	2.59466798
283	43	2	-2	13.17856731	2.95185958	0.38172202
284	44	2	-2	18.14984681	7.08774008	1.86991702
285	45	2	-2	15.43356513	7.43729489	0.64840656
286	46	2	-2	10.95512963	3.93614039	2.13660156
287	47	2	-2	18.27274937	4.33562061	0.83978844
288	48	2	-2	13.79431387	0.83446611	2.32798344
289	49	2	-2	10.56987594	6.00690668	0.16221326
290	50	2	-2	15.73410044	2.50575218	1.65040825
291	51	2	-2	13.49377856	5.76600882	1.32598174
292	52	2	-2	18.65800306	2.26485432	2.81417674
293	53	2	-2	11.57087619	1.81874692	4.08286298
294	54	2	-2	16.54215569	5.95462742	5.57105798
295	55	2	-2	13.67141131	3.58658558	3.35811202
296	56	2	-2	18.64269081	7.72246608	4.84630702
297	57	2	-2	15.92640913	8.07202089	3.62479656
298	58	2	-2	11.44797363	4.57086639	5.11299156
299	59	2	-2	18.76559337	4.97034661	3.81617844
300	60	2	-2	14.28715787	1.46919211	5.30437344
301	61	2	-2	11.06271994	6.64163268	3.13860326
302	62	2	-2	16.22694444	3.14047818	4.62679825
303	63	2	-2	13.98662256	6.40073482	4.30237175
304	64	2	-2	19.15084706	2.89958032	5.79056674
305	65	2	-2	12.06372019	2.45347292	7.05925298
306	66	2	-2	17.03499969	6.58935342	8.54744798
307	67	2	-2	14.16425531	4.22131158	6.33450202
308	68	2	-2	19.13553481	8.35719208	7.82269702
309	69	2	-2	16.41925313	8.70674689	6.60118656
310	70	2	-2	11.94081763	5.20559239	8.08938156
311	71	2	-2	19.25843737	5.60507261	6.79256844
312	72	2	-2	14.78000187	2.10391811	8.28076344
313	73	2	-2	11.55556394	7.27635868	6.11499325
314	74	2	-2	16.71978844	3.77520418	7.60318826
315	75	2	-2	14.47946656	7.03546082	7.27876174
316	76	2	-2	19.64369106	3.53430632	8.76695674
317	77	2	-2	12.55656419	3.08819892	10.03564298
318	78	2	-2	17.52784369	7.22407942	11.52383798
319	79	2	-2	14.65709931	4.85603758	9.31089202
320	80	2	-2	19.62837881	8.99191808	10.79908702
321	81	2	-2	16.91209713	9.34147289	9.57757656
322	82	2	-2	12.43366163	5.84031839	11.06577156
323	83	2	-2	19.75128137	6.23979861	9.76895844
324	84	2	-2	15.27284587	2.73864411	11.25715344
325	85	2	-2	12.04840794	7.91108468	9.09138326
326	86	2	-2	17.21263244	4.40993018	10.57957825
327	87	2	-2	14.97231056	7.67018682	10.25515175
328	88	2	-2	20.13653506	4.16903232	11.74334675
329	89	2	-2	13.04940819	3.72292492	13.01203298
330	90	2	-2	18.02068769	7.85880542	14.50022798
331	91	2	-2	15.14994331	5.49076358	12.28728202
332	92	2	-2	20.12122281	9.62664408	13.77547702
333	93	2	-2	17.40494113	9.97619889	12.55396656
334	94	2	-2	12.92650563	6.47504439	14.04216156
335	95	2	-2	20.24412537	6.87452461	12.74534844
336	96	2	-2	15.76568987	3.37337011	14.23354344
337	97	2	-2	12.54125194	8.54581068	12.06777325
338	98	2	-2	17.70547644	5.04465618	13.55596825
339	99	2	-2	15.46515456	8.30491282	13.23154174
340	100	2	-2	20.62937906	4.80375832	14.71973674
341	101	2	-2	10.88508719	8.82105592	1.10647298
342	102	2	-2	15.85636669	12.95693642	2.59466798
343	103	2	-2	12.98562231	10.58889458	0.38172202
344	104	2	-2	17.95690181	14.72477508	1.86991702
345	105	2	-2	15.24062013	15.07432989	0.64840656
346	106	2	-2	10.76218463	11.57317539	2.13660156
347	107	2	-2	18.07980437	11.97265561	0.83978844
348	108	2	-2	13.60136887	8.47150111	2.32798344
349	109	2	-2	10.37693094	13.64394168	0.16221326
350	110	2	-2	15.54115544	10.14278718	1.65040825
351	111	2	-2	13.30083356	13.40304382	1.32598174
352	112	2	-2	18.46505806	9.90188932	2.81417674
353	113	2	-2	11.37793119	9.45578192	4.08286298
354	114	2	-2	16.34921069	13.59166242	5.57105798
355	115	2	-2	13.47846631	11.22362058	3.35811202
356	116	2	-2	18.44974581	15.35950108	4.84630702
357	117	2	-2	15.73346413	15.70905589	3.62479656
358	118	2	-2	11.25502863	12.20790139	5.11299156
359	119	2	-2	18.57264837	12.60738161	3.81617844
360	120	2	-2	14.09421287	9.10622711	5.30437344
361	121	2	-2	10.86977494	14.27866768	3.13860326
362	122	2	-2	16.03399944	10.77751318	4.62679825
363	123	2	-2	13.79367756	14.03776982	4.30237175
364	124	2	-2	18.95790206	10.53661532	5.79056674
365	125	2	-2	11.87077519	10.09050792	7.05925298
366	126	2	-2	16.84205469	14.22638842	8.54744798
367	127	2	-2	13.97131031	11.85834658	6.33450202
368	128	2	-2	18.94258981	15.99422708	7.82269702
369	129	2	-2	16.22630813	16.34378189	6.60118656
370	130	2	-2	11.74787263	12.84262739	8.08938156
371	131	2	-2	19.06549237	13.24210761	6.79256844
372	132	2	-2	14.58705687	9.74095311	8.28076344
373	133	2	-2	11.36261894	14.91339368	6.11499325
374	134	2	-2	16.52684344	11.41223918	7.60318826
375	135	2	-2	14.28652156	14.67249582	7.27876174
376	136	2	-2	19.45074606	11.17134132	8.76695674
377	137	2	-2	12.36361919	10.72523392	10.03564298
378	138	2	-2	17.33489869	14.86111442	11.52383798
379	139	2	-2	14.46415431	12.49307258	9.31089202
380	140	2	-2	19.43543381	16.62895308	10.79908702
381	141	2	-2	16.71915213	16.97850789	9.57757656
382	142	2	-2	12.24071663	13.47735339	11.06577156
383	143	2	-2	19.55833637	13.87683361	9.76895844
384	144	2	-2	15.07990087	10.37567911	11.25715344
385	145	2	-2	11.85546294	15.54811968	9.09138326
386	146	2	-2	17.01968744	12.04696518	10.57957825
387	147	2	-2	14.77936556	15.30722182	10.25515175
388	148	2	-2	19.94359006	11.80606732	11.74334675
389	149	2	-2	12.85646319	11.35995992	13.01203298
390	150	2	-2	17.82774269	15.49584042	14.50022798
391	151	2	-2	14.95699831	13.12779858	12.28728202
392	152	2	-2	19.92827781	17.26367908	13.77547702
393	153	2	-2	17.21199613	17.61323389	12.55396656
394	154	2	-2	12.73356063	14.11207939	14.04216156
395	155	2	-2	20.05118037	14.51155961	12.74534844
396	156	2	-2	15.57274487	11.01040511	14.23354344
397	157	2	-2	12.34830694	16.18284568	12.06777325
398	158	2	-2	17.51253144	12.68169118	13.55596825
399	159	2	-2	15.27220956	15.94194782	13.23154174
400	160	2	-2	20.43643406	12.44079332	14.71973674
