LAMMPS (7 Aug 2019)
  using 1 OpenMP thread(s) per MPI task
  using 1 OpenMP thread(s) per MPI task
Reading data file ...
  orthogonal box = (0 0 0) to (18.3703 18.3703 18.3703)
  2 by 4 by 5 MPI processor grid
  reading atoms ...
  400 atoms
Finding 1-2 1-3 1-4 neighbors ...
  special bond factors lj:   0          0          0         
  special bond factors coul: 0          0          0         
  0 = max # of 1-2 neighbors
  0 = max # of 1-3 neighbors
  0 = max # of 1-4 neighbors
  1 = max # of special neighbors
  special bonds CPU = 0.00156093 secs
  read_data CPU = 0.00627184 secs
Ewald initialization ...
  using 12-bit tables for long-range coulomb (../kspace.cpp:323)
  G vector (1/distance) = 0.209549
  estimated absolute RMS force accuracy = 0.000144321
  estimated relative force accuracy = 1.00225e-05
  KSpace vectors: actual max1d max3d = 257 5 665
                  kxmax kymax kzmax  = 5 5 5
Neighbor list info ...
  update every 1 steps, delay 10 steps, check yes
  max neighbors/atom: 2000, page size: 100000
  master list distance cutoff = 16.2
  ghost atom cutoff = 16.2
  binsize = 8.1, bins = 3 3 3
  1 neighbor lists, perpetual/occasional/extra = 1 0 0
  (1) pair buck/coul/long/cs, perpetual
      attributes: half, newton on
      pair build: half/bin/newton
      stencil: half/bin/3d/newton
      bin: standard
Setting up Verlet run ...
  Unit style    : metal
  Current step  : 0
  Time step     : 0.001
Per MPI rank memory allocation (min/avg/max) = 14.48 | 14.56 | 14.74 Mbytes
Step Lx Atoms Temp PotEng Lx Ly Lz Press Pxx Pyy Pzz Volume v_rho 
       0    18.370312      400            0   -11600.723    18.370312    18.370312    18.370312   -32892.021   -23041.203   -46315.521   -29319.339    6199.3991    4.0166005 
    1000    18.123554      400    3988.7188   -11614.553    18.123554    18.123554    18.123554     1814.029    3636.0445   -94.103505    1900.1459    5952.9208    4.1829063 
    2000    18.319529      400    4211.0221   -11603.366    18.319529    18.319529    18.319529    4140.5017     12084.52    6882.0491   -6545.0636    6148.1285    4.0500958 
    3000    18.042845      400     3899.589   -11606.383    18.042845    18.042845    18.042845   -2976.3539   -901.97273   -15044.438    7017.3492    5873.7445    4.2392906 
    4000    18.080077      400    3995.8052   -11597.578    18.080077    18.080077    18.080077    4493.5501   -4360.5053    8377.6938    9463.4618    5910.1817    4.2131547 
    5000    18.015471      400    4170.6323   -11607.826    18.015471    18.015471    18.015471    -4217.314    7039.9979    -5262.759   -14429.181    5847.0507    4.2586444 
    6000    18.181266      400    3972.1785    -11594.98    18.181266    18.181266    18.181266   -4353.2295    6546.1378   -15137.876   -4467.9498    6009.9709    4.1431997 
    7000    18.287195      400    4124.8772   -11598.422    18.287195    18.287195    18.287195    737.84985    1046.2438    -13534.63    14701.935    6115.6313    4.0716172 
    8000    18.324908      400    3791.9257   -11595.387    18.324908    18.324908    18.324908   -5369.6315    14501.506   -20106.965   -10503.435     6153.545    4.0465308 
    9000    18.292585      400    4059.3037   -11581.595    18.292585    18.292585    18.292585    857.93767   -10551.049    13730.361   -605.49861    6121.0407     4.068019 
   10000    18.166718      400    4075.0449    -11606.13    18.166718    18.166718    18.166718   -2589.2072   -4133.6665    1617.1408   -5251.0961    5995.5558    4.1531612 
   11000    18.346272      400    4007.1034   -11609.066    18.346272    18.346272    18.346272    585.11501   -15124.161     2708.013    14171.493    6175.0925    4.0324108 
   12000    18.603967      400    3901.4253   -11575.621    18.603967    18.603967    18.603967   -3140.8862     -4766.34   -4798.3144    141.99587    6438.9745    3.8671546 
   13000    18.279863      400    4189.8749   -11599.669    18.279863    18.279863    18.279863   -2676.1419    3564.0179   -7490.3117   -4102.1318    6108.2778    4.0765189 
   14000    18.218068      400    4134.5532   -11598.509    18.218068    18.218068    18.218068     379.3926    8154.7403   -10932.468    3915.9059    6046.5406    4.1181415 
   15000    18.455944      400    4076.6306   -11595.243    18.455944    18.455944    18.455944   -4016.6943    10972.004   -12321.956   -10700.132    6286.4979    3.9609509 
   16000    18.225221      400    4068.8733    -11609.73    18.225221    18.225221    18.225221   -1580.3681    3415.9337   -5827.8394   -2329.1985    6053.6656    4.1132945 
   17000    18.047448      400    3999.2823   -11590.123    18.047448    18.047448    18.047448   -2761.5073   -34471.988    26623.231   -435.76388     5878.241    4.2360478 
   18000    18.372747      400     4072.777   -11585.098    18.372747    18.372747    18.372747    374.80073   -22979.359    8468.5537    15635.208    6201.8642     4.015004 
   19000    18.487687      400    4076.2586   -11594.738    18.487687    18.487687    18.487687    445.03944   -3526.0889   -738.85545    5600.0626    6318.9913     3.940583 
   20000    18.145629      400    4232.4924   -11591.738    18.145629    18.145629    18.145629   -1796.0307   -3884.4383   -12415.909    10912.255    5974.6998    4.1676587 
   21000    18.410994      400    3982.9341   -11583.121    18.410994    18.410994    18.410994   -4689.1932   -6789.4605   -14816.547    7538.4284    6240.6776     3.990033 
   22000     18.35906      400    3951.2744   -11584.784     18.35906     18.35906     18.35906   -4372.1898   -5304.9301   -2749.1042   -5062.5351    6188.0149      4.02399 
   23000    18.137622      400    3844.5942   -11604.736    18.137622    18.137622    18.137622    5805.6922    23956.144   -16004.618    9465.5503    5966.7936     4.173181 
   24000    18.320926      400    4004.5158   -11584.363    18.320926    18.320926    18.320926    944.03002    2118.0535   -4167.5114     4881.548    6149.5344    4.0491699 
   25000    18.146778      400    3896.0463   -11596.631    18.146778    18.146778    18.146778    3424.0177    6101.3159    4921.6525   -750.91517    5975.8343    4.1668675 
   26000    18.379016      400     3998.979   -11606.787    18.379016    18.379016    18.379016    -384.8723   -1574.5157    1367.2461   -947.34731    6208.2154    4.0108965 
   27000    18.303307      400    4163.2764   -11597.141    18.303307    18.303307    18.303307    1037.8562    3479.9627   -16101.795    15735.401    6131.8104     4.060874 
   28000    18.400596      400    4079.6881   -11607.065    18.400596    18.400596    18.400596   -3951.6394    720.64682   -10559.726   -2015.8385    6230.1098    3.9968011 
   29000    18.277007      400    4161.1876   -11600.473    18.277007    18.277007    18.277007   -3638.0303    1304.9679      -9373.1   -2845.9588    6105.4157    4.0784299 
   30000    18.279221      400     4377.583   -11615.944    18.279221    18.279221    18.279221    1497.3523    5420.3645    1001.6446   -1929.9522     6107.635    4.0769479 
   31000    18.298287      400    3896.0465   -11591.023    18.298287    18.298287    18.298287    1924.5985    3744.3823   -8607.3512    10636.764    6126.7657    4.0642177 
   32000    18.400623      400    3815.2434   -11576.874    18.400623    18.400623    18.400623    4722.3322    3724.7131    -5933.081    16375.364    6230.1371    3.9967836 
   33000    18.362081      400    3743.1374   -11620.892    18.362081    18.362081    18.362081   -910.20778   -9075.1812    10818.317   -4473.7589    6191.0694    4.0220046 
   34000    18.077216      400    4248.5559   -11600.521    18.077216    18.077216    18.077216   -1672.9733   -2796.9789    -3603.343    1381.4021    5907.3767    4.2151552 
   35000      18.3435      400    3786.4551   -11589.627      18.3435      18.3435      18.3435   -982.90912   -1637.5605     4555.187   -5866.3539    6172.2941     4.034239 
   36000    18.257093      400    3939.4622   -11603.896    18.257093    18.257093    18.257093    2719.1928    11026.914   -14799.445    11930.109    6085.4801    4.0917905 
   37000    18.209731      400    4115.8448    -11596.44    18.209731    18.209731    18.209731    5098.0368   -3988.2929   -6050.2474    25332.651    6038.2426    4.1238008 
   38000    18.439218      400    4024.8244    -11611.17    18.439218    18.439218    18.439218    198.09155   -6602.2302    2964.5578    4231.9471    6269.4221    3.9717392 
   39000    18.470284      400    4051.9219   -11590.005    18.470284    18.470284    18.470284   -1952.6341    1745.0942    8090.3887   -15693.385    6301.1633    3.9517322 
   40000    18.641747      400    4015.3279   -11584.571    18.641747    18.641747    18.641747   -4499.2359    1629.8867   -12937.867   -2189.7273     6478.282    3.8436903 
   41000    18.502895      400    3747.0311   -11599.827    18.502895    18.502895    18.502895   -192.60301   -1986.8322    1742.0741   -333.05096    6334.5976    3.9308747 
   42000    18.550641      400    4222.0898   -11587.812    18.550641    18.550641    18.550641    3576.0105    3232.2764    12325.459   -4829.7039    6383.7628    3.9006007 
   43000    18.303572      400     3953.626    -11602.22    18.303572    18.303572    18.303572   -2935.9836   -10842.055   -19402.862    21436.966    6132.0768    4.0606976 
   44000    18.275656      400    4232.0877   -11604.623    18.275656    18.275656    18.275656   -2745.3352     2255.428   -16740.758    6249.3242    6104.0623    4.0793341 
   45000    18.135675      400     3832.596    -11601.96    18.135675    18.135675    18.135675   -7407.5327    8744.8708   -22966.405   -8001.0642    5964.8726     4.174525 
   46000    18.165644      400    4071.6923   -11604.552    18.165644    18.165644    18.165644    2824.0537    -9021.455    10780.002    6713.6139    5994.4926    4.1538978 
   47000    18.153111      400    4022.8941    -11596.96    18.153111    18.153111    18.153111   -720.35008   -1245.1595   -3372.5867    2456.6959    5982.0934    4.1625077 
   48000    18.116032      400    4384.8147   -11598.127    18.116032    18.116032    18.116032   -634.80678    4495.8038   -2337.7875   -4062.4367    5945.5114    4.1881191 
   49000    18.172873      400    3964.4254   -11608.857    18.172873    18.172873    18.172873   -2722.5023   -1543.1081   -10821.011    4196.6119    6001.6519    4.1489427 
   50000    18.187562      400    4085.8137   -11599.731    18.187562    18.187562    18.187562   -4647.5728   -10631.898   -8112.1628    4801.3425     6016.217    4.1388982 
   50001    18.184792      400     4109.413   -11601.046    18.184792    18.184792    18.184792   -4571.4555   -10591.112   -7850.5514    4727.2973    6013.4679    4.1407903 
Loop time of 44.9676 on 40 procs for 50001 steps with 400 atoms

Performance: 96.071 ns/day, 0.250 hours/ns, 1111.935 timesteps/s
99.0% CPU use with 40 MPI tasks x 1 OpenMP threads

MPI task timing breakdown:
Section |  min time  |  avg time  |  max time  |%varavg| %total
---------------------------------------------------------------
Pair    | 8.6844     | 12.183     | 16.287     |  54.2 | 27.09
Bond    | 0.0061796  | 0.0072953  | 0.0084617  |   0.7 |  0.02
Kspace  | 6.5686     | 10.514     | 14.625     |  61.7 | 23.38
Neigh   | 0.83843    | 0.9678     | 1.1107     |   7.6 |  2.15
Comm    | 19.461     | 19.944     | 20.41      |   7.1 | 44.35
Output  | 0.0033615  | 0.0034553  | 0.0046232  |   0.3 |  0.01
Modify  | 1.0672     | 1.1086     | 1.1535     |   2.2 |  2.47
Other   |            | 0.2394     |            |       |  0.53

Nlocal:    10 ave 14 max 6 min
Histogram: 3 1 3 8 0 8 11 2 2 2
Nghost:    3666.5 ave 3695 max 3624 min
Histogram: 1 3 2 3 4 4 5 7 6 5
Neighs:    5910.3 ave 10063 max 3177 min
Histogram: 2 4 8 9 7 3 2 4 0 1

Total # of neighbors = 236412
Ave neighs/atom = 591.03
Ave special neighs/atom = 0
Neighbor list builds = 5000
Dangerous builds = 5000
Ewald initialization ...
  using 12-bit tables for long-range coulomb (../kspace.cpp:323)
  G vector (1/distance) = 0.209691
  estimated absolute RMS force accuracy = 0.00014433
  estimated relative force accuracy = 1.00232e-05
  KSpace vectors: actual max1d max3d = 257 5 665
                  kxmax kymax kzmax  = 5 5 5
Setting up Verlet run ...
  Unit style    : metal
  Current step  : 50001
  Time step     : 0.001
Per MPI rank memory allocation (min/avg/max) = 14.75 | 14.75 | 14.75 Mbytes
Step Lx Atoms Temp PotEng Lx Ly Lz Press Pxx Pyy Pzz Volume v_rho 
   50001    18.184792      400     4109.413   -11601.118    18.184792    18.184792    18.184792    -3972.276   -10014.417   -7250.7451    5348.3338    6013.4679    4.1407903 
   51000    18.265192      400    3810.4729   -11597.825    18.265192    18.265192    18.265192   -2886.3038   -11120.202   -3698.1939    6159.4841    6093.5829    4.0863496 
   52000    18.460129      400    3970.7197   -11580.048    18.460129    18.460129    18.460129    830.13055    8029.7279    6422.2172   -11961.553     6290.776    3.9582572 
   53000    18.388824      400    4131.7626   -11589.257    18.388824    18.388824    18.388824   -2228.0995   -5529.4218   -19396.356     18241.48    6218.1599    4.0044821 
   54000    18.394341      400    3917.1598   -11595.954    18.394341    18.394341    18.394341    331.06836   -6684.3501    13172.859    -5495.304    6223.7584    4.0008799 
   55000    18.231603      400    4044.5443   -11590.643    18.231603    18.231603    18.231603   -3363.3428   -17243.977    1902.2079    5251.7402    6060.0267    4.1089769 
   56000    18.257451      400    3936.9438   -11608.702    18.257451    18.257451    18.257451      944.009   -8939.5673    8127.8112    3643.7831     6085.839    4.0915492 
   57000    18.356108      400    4019.1989    -11580.44    18.356108    18.356108    18.356108    5709.3129    9034.3996    1477.7717    6615.7674    6185.0302    4.0259318 
   58000    18.365297      400    3780.4051   -11596.773    18.365297    18.365297    18.365297    -998.9039    12302.967   -8719.0606   -6580.6185    6194.3234    4.0198918 
   59000     18.58492      400    4175.6326   -11596.132     18.58492     18.58492     18.58492    8157.6144   -16821.489    26523.103    14771.229    6419.2171    3.8790571 
   60000    18.150058      400    3917.4087   -11596.955    18.150058    18.150058    18.150058    3101.5946   -10009.103   -1090.4087    20404.295    5979.0758    4.1646085 
   61000    18.326913      400    4126.3046   -11598.737    18.326913    18.326913    18.326913   -6760.3229   -11370.058   -13075.848    4164.9374    6155.5651    4.0452029 
   62000     18.14405      400    3960.7059   -11607.959     18.14405     18.14405     18.14405    4345.3708    8516.4762    12048.403   -7528.7671    5973.1405    4.1687467 
   63000    18.344753      400     4176.549   -11593.576    18.344753    18.344753    18.344753    1161.1055   -6069.9634   -8746.2794    18299.559    6173.5595    4.0334121 
   64000    18.486704      400    3882.4994   -11593.056    18.486704    18.486704    18.486704   -584.73029    10202.612   -7756.3093   -4200.4933    6317.9826    3.9412121 
   65000    18.351918      400    3602.6518   -11598.642    18.351918    18.351918    18.351918    -2906.703    -7221.463    14574.411   -16073.057    6180.7951    4.0286904 
   66000     18.36287      400    4004.6287   -11588.345     18.36287     18.36287     18.36287    3166.4225   -5341.4445    13070.692    1770.0196    6191.8674    4.0214863 
   67000      18.4176      400    4123.3309   -11610.603      18.4176      18.4176      18.4176    5261.9795    6296.9262     15567.53    -6078.518    6247.3967    3.9857417 
   68000    18.313784      400    4112.6664   -11577.017    18.313784    18.313784    18.313784     3267.073    8397.0964   -890.33628    2294.4588    6142.3457    4.0539088 
   69000    18.315128      400    3901.7651     -11603.6    18.315128    18.315128    18.315128     1.377631   -480.96717    4566.6336   -4081.5335    6143.6985    4.0530162 
   70000    18.329795      400    3999.5658   -11593.853    18.329795    18.329795    18.329795    2763.3601    14655.672   -5068.5171   -1297.0746      6158.47    4.0432948 
   71000    18.067562      400    3741.7547   -11605.635    18.067562    18.067562    18.067562    1048.3249   -11299.992    14403.138    41.828523    5897.9168    4.2219161 
   72000    18.092025      400    4095.8783   -11604.608    18.092025    18.092025    18.092025    5028.2563   -2250.7978   -4503.1979    21838.765    5921.9068    4.2048128 
   73000    18.257735      400    4070.3252   -11601.574    18.257735    18.257735    18.257735   -4670.4821   -9416.8901    2136.6984   -6731.2545    6086.1226    4.0913586 
   74000    18.233523      400     3996.804   -11594.074    18.233523    18.233523    18.233523    1175.7413   -10287.468    9160.9758    4653.7166     6061.942    4.1076787 
   75000    18.493178      400    4120.6284   -11588.777    18.493178    18.493178    18.493178    1088.7269   -8965.0092    9772.8066    2458.3833    6324.6232     3.937074 
   76000    18.275669      400    4043.2115   -11612.974    18.275669    18.275669    18.275669    2683.5645    9133.0089    12532.951   -13615.267    6104.0745     4.079326 
   77000    18.225399      400    4128.7168   -11586.877    18.225399    18.225399    18.225399   -2130.4368   -24067.123    27566.255   -9890.4423    6053.8428    4.1131742 
   78000    18.420338      400    3997.7304   -11591.276    18.420338    18.420338    18.420338   -1963.1453    13623.576   -14783.897   -4729.1153    6250.1837    3.9839644 
   79000    18.242098      400    4067.6658   -11587.503    18.242098    18.242098    18.242098    3064.2487    4161.1366    5535.0858   -503.47621     6070.498    4.1018891 
   80000    18.351413      400    3902.8786   -11601.868    18.351413    18.351413    18.351413    2811.6579    9650.9961   -2451.8669    1235.8444    6180.2852    4.0290227 
   81000    18.650525      400    4170.0645   -11591.595    18.650525    18.650525    18.650525    2608.9343    3174.4538   -6135.9697    10788.319     6487.437    3.8382661 
   82000    18.473569      400    4170.3726   -11599.818    18.473569    18.473569    18.473569   -495.15504   -12726.674    13171.637    -1930.428    6304.5261    3.9496243 
   83000    18.447272      400    3774.1351   -11596.217    18.447272    18.447272    18.447272    194.46761    18728.567   -7466.0185   -10679.146     6277.641    3.9665393 
   84000     18.57338      400    4292.0687    -11610.74     18.57338     18.57338     18.57338    2974.4747     6789.152   -4253.3855    6387.6574    6407.2667     3.886292 
   85000    18.470611      400    4398.9555   -11596.994    18.470611    18.470611    18.470611   -1770.1913    -4470.239    4071.3987   -4911.7337    6301.4978    3.9515224 
   86000    18.104446      400    3796.5959   -11599.969    18.104446    18.104446    18.104446   -3984.2947    -14604.77   -11478.639    14130.525    5934.1117    4.1961646 
   87000    18.168748      400    4251.0983   -11605.261    18.168748    18.168748    18.168748   -1151.7355    11902.759   -10424.808   -4933.1578    5997.5653    4.1517697 
   88000    18.214592      400    3905.1964   -11589.361    18.214592    18.214592    18.214592   -6463.2916   -4008.9955   -8318.4015   -7062.4776    6043.0799    4.1204999 
   89000    18.242261      400    4222.8221   -11593.387    18.242261    18.242261    18.242261   -8098.5331   -15958.601   -20583.535    12246.537    6070.6612    4.1017789 
   90000    18.412894      400    4052.5995   -11591.217    18.412894    18.412894    18.412894    259.92948   -2024.0751    2600.9486    202.91488    6242.6089    3.9887986 
   91000    18.415863      400    3898.0058   -11594.984    18.415863    18.415863    18.415863    1561.0406     9751.486   -14851.224    9782.8593    6245.6298    3.9868693 
   92000     18.48881      400    4218.3777   -11609.343     18.48881     18.48881     18.48881   -2432.9666   -5935.4507    4345.0456   -5708.4947    6320.1431    3.9398648 
   93000    18.126248      400    3780.0925   -11599.998    18.126248    18.126248    18.126248    5501.9756    241.22664    3180.5091    13084.191    5955.5755    4.1810417 
   94000    18.491011      400    3996.1515   -11595.178    18.491011    18.491011    18.491011    171.15657    11557.419   -5038.0477   -6005.9015    6322.4004    3.9384582 
   95000    18.471244      400    4166.3612   -11604.271    18.471244    18.471244    18.471244   -1109.1006    1267.9412   -6425.2847    1830.0418     6302.146    3.9511159 
   96000    18.371114      400    4045.0616   -11597.544    18.371114    18.371114    18.371114    4543.5462   -5033.1331    4174.7256    14489.046    6200.2107    4.0160748 
   97000    18.302271      400    3886.2585    -11598.41    18.302271    18.302271    18.302271    3601.6991    17925.071   -4799.1125   -2320.8614    6130.7684    4.0615642 
   98000    18.075126      400    3933.3111   -11616.407    18.075126    18.075126    18.075126   -3393.9233    4544.2821   -10773.854   -3952.1983    5905.3281    4.2166175 
   99000    18.346455      400    4092.1676   -11595.503    18.346455    18.346455    18.346455    3991.0561    7977.2231   -2642.5381    6638.4833    6175.2771    4.0322902 
  100000    18.226136      400    3823.3525   -11576.708    18.226136    18.226136    18.226136   -1885.6226    12330.536   -17183.715   -803.68882     6054.577    4.1126753 
  101000    18.154419      400    3892.4918   -11608.054    18.154419    18.154419    18.154419    2530.8699    3601.3092    2942.1314    1049.1693    5983.3862    4.1616083 
  102000    18.124692      400    3931.4726   -11618.236    18.124692    18.124692    18.124692    336.66413   -9356.0211    4552.6701    5813.3434    5954.0425    4.1821182 
  103000    18.447895      400    4353.6547   -11604.457    18.447895    18.447895    18.447895     4288.522    11466.261     6054.608   -4655.3032    6278.2769    3.9661375 
  104000     18.41685      400    3705.9817    -11595.13     18.41685     18.41685     18.41685    478.73881   -423.59331    4899.4476   -3039.6378    6246.6344    3.9862281 
  105000    18.172585      400    3882.6443   -11598.927    18.172585    18.172585    18.172585    8873.0697    -1697.503    8719.5983    19597.114    6001.3663    4.1491401 
  106000    18.181528      400     3922.567   -11614.312    18.181528    18.181528    18.181528   -1653.8601   -11159.954    12553.044   -6354.6708    6010.2308    4.1430205 
  107000    18.107329      400    3980.3621   -11592.543    18.107329    18.107329    18.107329   -2607.4509   -4798.2448    3431.4979   -6455.6059    5936.9467    4.1941609 
  108000    18.096199      400    3882.5593    -11623.35    18.096199    18.096199    18.096199   -540.44813    20195.451    3555.0451    -25371.84    5926.0064    4.2019039 
  109000    18.191243      400    4086.4672   -11602.266    18.191243    18.191243    18.191243    3067.6702   -2258.3774    16688.122   -5226.7342      6019.87    4.1363866 
  110000      18.0522      400    4030.1056   -11609.674      18.0522      18.0522      18.0522   -1873.6908   -25359.441    15251.226    4487.1427     5882.886     4.232703 
  111000    17.999423      400    3827.5731   -11610.425    17.999423    17.999423    17.999423   -4066.8134   -11438.514    2357.5809   -3119.5076    5831.4391    4.2700454 
  112000    18.132163      400    4016.3283    -11583.22    18.132163    18.132163    18.132163    726.47237   -8536.0152    5852.8421    4862.5902    5961.4083    4.1769509 
  113000     18.19108      400    3797.3896   -11613.528     18.19108     18.19108     18.19108    929.05563   -573.25015   -5720.2483    9080.6653    6019.7083    4.1364977 
  114000    18.157619      400    4001.2902   -11583.219    18.157619    18.157619    18.157619   -3106.8831    311.05852    -2096.922   -7534.7858    5986.5516    4.1594078 
  115000    18.230836      400    4082.0491   -11607.108    18.230836    18.230836    18.230836     6453.612   -5765.4157    18431.622      6694.63    6059.2627     4.109495 
  116000     18.18137      400    3758.4155   -11617.585     18.18137     18.18137     18.18137   -5615.9946   -2598.8812   -8966.3769   -5282.7258    6010.0737    4.1431288 
  117000    18.054404      400    4088.0288   -11602.089    18.054404    18.054404    18.054404    1157.6819    207.88031    15752.714   -12487.549    5885.0409    4.2311532 
  118000    18.176372      400    4162.9494   -11585.244    18.176372    18.176372    18.176372   -5471.7195    8006.6516   -12520.687   -11901.123    6005.1186    4.1465476 
  119000    18.329285      400    3997.5708   -11595.721    18.329285    18.329285    18.329285   -1310.1987    4002.6281   -3915.8697   -4017.3545    6157.9559    4.0436324 
  120000    17.993661      400    3923.9246   -11607.217    17.993661    17.993661    17.993661   -3340.8595    11342.324   -6671.8176   -14693.085    5825.8407    4.2741487 
  121000    18.267061      400    4178.3547   -11589.018    18.267061    18.267061    18.267061   -1873.6669    15102.125   -4491.3969   -16231.728     6095.454    4.0850952 
  122000    18.445391      400    3796.1685   -11618.418    18.445391    18.445391    18.445391    1228.1224    10659.608   -16578.041    9602.7999    6275.7203    3.9677533 
  123000    18.523341      400    3992.8567   -11587.046    18.523341    18.523341    18.523341    1908.3704   -10675.111    8521.6287    7878.5938    6355.6202    3.9178725 
  124000    18.171902      400    3875.6334   -11606.814    18.171902    18.171902    18.171902   -3396.6812   -4644.5439   -7142.3584    1596.8587    6000.6892    4.1496083 
  125000    18.123544      400     3729.132   -11607.065    18.123544    18.123544    18.123544   -1774.2761    1232.8199    6720.7581   -13276.406    5952.9113     4.182913 
  126000    18.038995      400    3885.3053   -11594.326    18.038995    18.038995    18.038995   -4220.8388   -12542.361    16292.784   -16412.939    5869.9855    4.2420053 
  127000    18.259402      400    3834.9819   -11603.613    18.259402    18.259402    18.259402    4869.8713   -15158.082    1716.9739    28050.722    6087.7898    4.0902381 
  128000     18.21107      400    3821.3394    -11602.28     18.21107     18.21107     18.21107   -2371.6404   -15714.415    11061.402   -2461.9084    6039.5751     4.122891 
  129000    18.362907      400    3883.2429   -11605.675    18.362907    18.362907    18.362907   -3869.0159    819.41271   -11627.841   -798.61935    6191.9049    4.0214619 
  130000    18.373067      400    3668.6428    -11617.71    18.373067    18.373067    18.373067    2069.6781    3449.1159    1848.6963    911.22214    6202.1888    4.0147939 
  131000    18.303348      400    4013.9739   -11611.713    18.303348    18.303348    18.303348    -4740.321   -5227.6448   -2521.3661    -6471.952    6131.8514    4.0608469 
  132000    18.012281      400    4236.8179   -11610.602    18.012281    18.012281    18.012281   -5959.2066   -70.853501   -4281.8344   -13524.932    5843.9456    4.2609072 
  133000    18.185731      400    3839.7202   -11596.797    18.185731    18.185731    18.185731    1296.0433    9843.7602    413.24979     -6368.88    6014.3995    4.1401489 
  134000    18.158052      400    3977.4487   -11602.021    18.158052    18.158052    18.158052    3103.7373   -10705.391    19469.337    547.26625    5986.9798    4.1591103 
  135000    18.385455      400    3645.5399   -11600.832    18.385455    18.385455    18.385455   -2893.2719    7137.9382   -13997.171   -1820.5826    6214.7429    4.0066838 
  136000    18.196037      400    3743.4135   -11584.288    18.196037    18.196037    18.196037    1260.0912   -3819.9923    18079.409   -10479.143     6024.631    4.1331178 
  137000    18.331654      400    3735.6006   -11595.066    18.331654    18.331654    18.331654    4512.7416   -10354.236    18158.542    5733.9193    6160.3435    4.0420651 
  138000    18.023187      400     3849.028   -11597.693    18.023187    18.023187    18.023187    5745.6818   -10966.961    -1864.089    30068.096    5854.5668    4.2531772 
  139000     18.25927      400    4022.5815   -11605.068     18.25927     18.25927     18.25927    5909.6116    15290.889    6116.7887   -3678.8431     6087.658    4.0903266 
  140000    17.996743      400    3823.2074   -11608.453    17.996743    17.996743    17.996743    861.43223   -7156.8033   -125.93748    9867.0374    5828.8349    4.2719531 
  141000     17.91579      400    3744.9223   -11620.506     17.91579     17.91579     17.91579     -4621.85    15506.786   -12908.048   -16464.288    5750.5297    4.3301245 
  142000    18.099582      400    3753.5291   -11606.638    18.099582    18.099582    18.099582    478.91113    -159.9992    88.308808    1508.4238    5929.3297    4.1995488 
  143000    18.271628      400      3932.23   -11602.698    18.271628    18.271628    18.271628   -2300.4347    473.98634    8164.7719   -15540.062    6100.0262    4.0820332 
  144000    18.418716      400    4090.8619   -11595.831    18.418716    18.418716    18.418716     192.3748   -13087.767    10011.892    3652.9994    6248.5324    3.9850173 
  145000    18.304586      400    3708.3079   -11614.195    18.304586    18.304586    18.304586    4733.4279    7292.2253    8448.8164   -1540.7582     6133.096    4.0600228 
  146000    18.281488      400    4139.8646    -11609.12    18.281488    18.281488    18.281488    3313.5843    10205.669    8267.9411    -8532.857    6109.9073    4.0754317 
  147000    18.119046      400    3949.9421   -11610.528    18.119046    18.119046    18.119046   -8064.1684   -3767.5418   -18896.571   -1528.3921    5948.4795    4.1860293 
  148000    18.146109      400    3757.5029   -11608.425    18.146109    18.146109    18.146109    1442.9476   -1697.7304    11240.427   -5213.8536    5975.1738    4.1673281 
  149000    17.963601      400    3831.6096   -11608.904    17.963601    17.963601    17.963601    1878.2415   -2082.2543    7794.9009   -77.922058    5796.6918    4.2956415 
  150000     18.24824      400    3755.0883   -11596.579     18.24824     18.24824     18.24824    1035.3179    4338.9003    20444.781   -21677.728    6076.6319    4.0977486 
  151000    18.607804      400    4213.0073   -11601.326    18.607804    18.607804    18.607804   -963.74344   -14961.298    674.53505    11395.532    6442.9587    3.8647632 
  152000    18.493974      400    3632.3055   -11609.221    18.493974    18.493974    18.493974   -4826.2857   -2756.5047    8313.0355   -20035.388    6325.4394     3.936566 
  153000    18.339011      400    3986.2025   -11595.736    18.339011    18.339011    18.339011   -1050.6738   -4358.7038   -4502.7297    5709.4121    6167.7634    4.0372025 
  154000     18.27865      400    3890.7471   -11607.281     18.27865     18.27865     18.27865   -3236.2183   -10774.255    3424.9877    -2359.388    6107.0627      4.07733 
  155000    18.214729      400    3942.5343   -11619.944    18.214729    18.214729    18.214729   -319.84535    -4169.811    5062.7532   -1852.4782    6043.2161    4.1204069 
  156000    18.107796      400    3785.7745   -11615.707    18.107796    18.107796    18.107796    3248.4873    6116.1444    684.05152     2945.266     5937.406    4.1938365 
  157000      18.1445      400    3955.2194   -11614.718      18.1445      18.1445      18.1445    2574.8025   -6855.8988    18452.528   -3872.2216    5973.5848    4.1684366 
  158000    17.837805      400    4012.6334   -11610.302    17.837805    17.837805    17.837805    868.47686    4988.2762    14147.577   -16530.423    5675.7631    4.3871651 
  159000    18.124961      400    3865.3671   -11606.443    18.124961    18.124961    18.124961   -1985.4159   -9832.2137      13445.6   -9569.6338    5954.3072    4.1819323 
  160000    18.140336      400     4178.288   -11594.564    18.140336    18.140336    18.140336   -2621.0222   -16831.475    6931.3706    2037.0375    5969.4726    4.1713082 
  161000    18.213326      400    3693.9905   -11616.994    18.213326    18.213326    18.213326   -153.17652   -7962.5288   -18221.061    25724.061    6041.8195    4.1213594 
  162000     18.34322      400    4001.9403   -11610.178     18.34322     18.34322     18.34322    1986.1826    2712.0364    8772.5637   -5526.0524    6172.0117    4.0344236 
  163000    18.396849      400    3595.4322    -11607.28    18.396849    18.396849    18.396849   -5358.3625   -12273.979   -2684.2996   -1116.8092    6226.3039    3.9992442 
  164000    18.334618      400    4210.9173    -11602.73    18.334618    18.334618    18.334618    3076.6239    1758.3739    9922.5615   -2451.0637    6163.3327    4.0401047 
  165000    18.314631      400    4058.7341   -11616.257    18.314631    18.314631    18.314631   -1926.1507    5356.8031   -6740.2536   -4395.0014    6143.1983    4.0533463 
  166000    18.270636      400    4072.8192   -11601.356    18.270636    18.270636    18.270636   -3326.5603   -1954.9062   -4255.0282   -3769.7465    6099.0335    4.0826976 
  167000    18.270216      400    3827.4377    -11599.79    18.270216    18.270216    18.270216   -973.47754    9832.3139   -2531.2559   -10221.491    6098.6122    4.0829797 
  168000    18.310089      400    4156.8866   -11607.444    18.310089    18.310089    18.310089   -496.13066    18415.896    -14624.09   -5280.1979    6138.6286    4.0563636 
  169000    18.254682      400    3831.9455   -11591.792    18.254682    18.254682    18.254682   -2538.0898    5146.2481   -1152.5357   -11607.982    6083.0703    4.0934114 
  170000    18.215109      400    3614.3639   -11596.267    18.215109    18.215109    18.215109   -84.586627    3051.2515    5508.1338   -8813.1452    6043.5941    4.1201493 
  171000    18.003859      400    3851.9261   -11616.385    18.003859    18.003859    18.003859    2894.5693    7739.1656   -789.49449    1734.0369    5835.7521    4.2668895 
  172000    18.135239      400      3802.34   -11615.871    18.135239    18.135239    18.135239   -1124.6875   -6466.8884   -13428.325    16521.151    5964.4422    4.1748262 
  173000     18.42165      400    3831.8345   -11592.588     18.42165     18.42165     18.42165   -5703.0369   -8630.5305   -12757.618     4279.038    6251.5197     3.983113 
  174000    18.300791      400      4103.49   -11618.738    18.300791    18.300791    18.300791    501.54495   -10068.318    5190.2126    6382.7399    6129.2816    4.0625495 
  175000    18.117014      400    3839.8363   -11620.228    18.117014    18.117014    18.117014   -6970.6925   -14894.589   -19028.594    13011.105    5946.4783    4.1874381 
  176000    18.109238      400    3702.0804   -11611.682    18.109238    18.109238    18.109238   -170.36006   -22215.827    2856.9734    18847.773    5938.8247    4.1928346 
  177000    18.402464      400    3810.5842   -11602.918    18.402464    18.402464    18.402464    2475.1702   -8053.9746    3008.7474    12470.738    6232.0069    3.9955844 
  178000     18.21415      400    3796.8105   -11585.967     18.21415     18.21415     18.21415   -4754.5318   -37.779801   -3432.4542   -10793.361    6042.6397       4.1208 
  179000    18.210321      400    3694.1441   -11613.636    18.210321    18.210321    18.210321   -1211.1381   -74.737965   -10468.747    6910.0711    6038.8299    4.1233998 
  180000     18.15417      400    3860.4354   -11608.502     18.15417     18.15417     18.15417   -1559.1741    19469.359     2781.647   -26928.528    5983.1407     4.161779 
  181000    18.062059      400    3657.2574   -11614.357    18.062059    18.062059    18.062059   -6300.1937   -4774.8822   -22332.548    8206.8492    5892.5298    4.2257757 
  182000    18.298329      400    3896.7444   -11616.789    18.298329    18.298329    18.298329    4549.8039    100.52892   -7968.0864    21516.969     6126.808    4.0641896 
  183000    18.312063      400    3807.7652   -11609.628    18.312063    18.312063    18.312063   -5139.6861   -12968.677   -4575.0596    2124.6781    6140.6144    4.0550518 
  184000    18.139814      400    4092.2183   -11613.681    18.139814    18.139814    18.139814    268.84483   -1977.2709    3119.1633   -335.35786    5968.9574    4.1716682 
  185000    18.035058      400    4037.7459   -11622.648    18.035058    18.035058    18.035058   -828.46371    5571.9189    9960.8889   -18018.199    5866.1428    4.2447841 
  186000    18.225199      400    3977.3287   -11605.566    18.225199    18.225199    18.225199   -1622.7455    13810.344    10903.673   -29582.254    6053.6435    4.1133095 
  187000    18.331774      400    3861.9416   -11589.518    18.331774    18.331774    18.331774    -4402.716    2787.0936    941.31151   -16936.553    6160.4652    4.0419853 
  188000    18.088956      400     3772.434   -11613.123    18.088956    18.088956    18.088956     2069.758    18303.157    18907.972   -31001.856    5918.8931    4.2069538 
  189000    18.207064      400    3783.1996   -11607.526    18.207064    18.207064    18.207064    4630.3087   -5208.4648     9615.578    9483.8127    6035.5908    4.1256126 
  190000    18.141762      400    4204.1417   -11617.522    18.141762    18.141762    18.141762    1508.2481    13001.957   -17269.106    8791.8938    5970.8803    4.1703247 
  191000    18.262458      400    3972.0679   -11606.873    18.262458    18.262458    18.262458    -1525.709   -3812.4335   -16489.496    15724.803    6090.8467    4.0881853 
  192000    18.103327      400    4043.5335   -11604.088    18.103327    18.103327    18.103327   -336.76806    2744.2509   -477.13215   -3277.4229    5933.0111     4.196943 
  193000    17.967151      400    3708.2237   -11607.848    17.967151    17.967151    17.967151   -1730.2415   -3952.2854   -12478.375    11239.936    5800.1289    4.2930959 
  194000    18.119837      400    3526.7833   -11593.766    18.119837    18.119837    18.119837    -556.4095   -8413.3806    6907.9785    -163.8264    5949.2589    4.1854809 
  195000    18.322797      400    4019.3031   -11600.908    18.322797    18.322797    18.322797   -2835.7571     -7798.78    137.47918   -845.97033    6151.4188    4.0479295 
  196000    18.223626      400    4011.0994    -11605.24    18.223626    18.223626    18.223626   -1574.1698   -10256.481    6909.7808   -1375.8098     6052.076    4.1143749 
  197000    18.170142      400    3845.6887    -11610.64    18.170142    18.170142    18.170142   -7199.7538    -6396.209   -5459.8349   -9743.2176    5998.9463    4.1508139 
  198000    18.481103      400    3830.7823   -11612.275    18.481103    18.481103    18.481103   -1305.3022    6734.5452   -2129.2332   -8521.2185    6312.2428     3.944796 
  199000    17.965489      400    3789.1277   -11612.326    17.965489    17.965489    17.965489   -994.79271   -14494.793    14932.968   -3422.5531    5798.5196    4.2942874 
  200000    17.980977      400    3906.2179   -11597.229    17.980977    17.980977    17.980977    7391.0367    8426.7315   -5014.8531    18761.232    5813.5296    4.2831999 
  201000    18.082445      400    3927.0453   -11608.961    18.082445    18.082445    18.082445   -2820.6351    9837.2497   -12933.596   -5365.5587    5912.5044    4.2114996 
  202000    18.024776      400    3836.5437    -11609.16    18.024776    18.024776    18.024776   -719.72393   -2961.5644   -3595.8552    4398.2477     5856.115    4.2520527 
  203000    18.160544      400    3935.3636   -11606.174    18.160544    18.160544    18.160544    1258.3196    8942.3706   -7596.8504    2429.4386    5989.4448    4.1573986 
  204000    17.879819      400    4045.8019   -11630.739    17.879819    17.879819    17.879819   -5692.9489    11.318663   -11623.813   -5466.3525    5715.9621    4.3563112 
  205000    18.109078      400    4090.9675   -11628.841    18.109078    18.109078    18.109078    1959.0548   -7568.5514    10263.809    3181.9068    5938.6674    4.1929456 
  206000    17.788672      400    3919.5982   -11612.447    17.788672    17.788672    17.788672   -4738.5546   -8509.6676   -2398.1168   -3307.8793    5628.9909    4.4236187 
  207000    18.258265      400    4173.3257   -11609.925    18.258265    18.258265    18.258265   -2623.9945    8323.8437    -1310.889   -14884.938    6086.6531    4.0910019 
  208000    18.334627      400    3974.5324   -11619.692    18.334627    18.334627    18.334627   -337.91475    5066.6951   -5100.3003   -980.13905    6163.3416    4.0400989 
  209000    18.583216      400    3923.1407   -11598.113    18.583216    18.583216    18.583216    174.09238   -17529.902      9858.37    8193.8092    6417.4523    3.8801238 
  210000    18.195971      400    3648.2543   -11614.389    18.195971    18.195971    18.195971   -1370.8619      7767.89   -13351.946    1471.4701    6024.5654    4.1331628 
  211000    18.462657      400    3801.3687   -11593.888    18.462657    18.462657    18.462657    1539.4533    17973.027   -6707.0088   -6647.6578      6293.36     3.956632 
  212000     18.18749      400    3552.4571   -11609.135     18.18749     18.18749     18.18749     3390.582   -2030.2831    8762.2851    3439.7441     6016.145    4.1389477 
  213000    18.134153      400    3948.8506   -11600.123    18.134153    18.134153    18.134153   -4824.2681    2170.9289     -2403.12   -14240.613     5963.371    4.1755761 
  214000    18.369322      400    3752.9771   -11616.022    18.369322    18.369322    18.369322   -1877.1614     13872.05   -20620.921    1117.3866    6198.3971    4.0172498 
  215000    18.441352      400     3939.451   -11608.327    18.441352    18.441352    18.441352    3430.2105    8497.8365   -729.35862    2522.1537    6271.5992    3.9703605 
  216000    18.429344      400    4001.8518   -11592.891    18.429344    18.429344    18.429344    1393.0257   -649.36814    -140.8702    4969.3155    6259.3557    3.9781267 
  217000    18.441107      400    3949.9659   -11597.513    18.441107    18.441107    18.441107    1685.9658    7126.7195    13833.506   -15902.328    6271.3492    3.9705187 
  218000    18.204051      400    3732.4724   -11613.941    18.204051    18.204051    18.204051    318.39298    12918.523    -5658.515   -6304.8292    6032.5944    4.1276618 
  219000    18.220793      400    3531.6875   -11597.392    18.220793    18.220793    18.220793   -2950.3674   -14219.717   -13654.857    19023.472    6049.2543    4.1162941 
  220000    18.269857      400    4113.1105   -11598.587    18.269857    18.269857    18.269857    7938.3187    4968.6268    14988.361     3857.968    6098.2532      4.08322 
  221000    18.388009      400    3919.9022   -11610.762    18.388009    18.388009    18.388009   -1929.6845    4147.2118    220.89013   -10157.155    6217.3327    4.0050149 
  222000     18.31629      400    3547.4326   -11620.871     18.31629     18.31629     18.31629    381.49255    12285.366   -22220.385    11079.496    6144.8679    4.0522449 
  223000    18.253682      400    3872.8239    -11609.85    18.253682    18.253682    18.253682    187.93074   -2888.0982   -965.45582    4417.3463    6082.0701    4.0940846 
  224000    18.220383      400    3763.5761   -11606.987    18.220383    18.220383    18.220383    519.92027   -14950.815    10044.799    6465.7768    6048.8455    4.1165723 
  225000    18.134553      400    3945.9121   -11622.575    18.134553    18.134553    18.134553    984.34072   -6815.6721     6451.293    3317.4013    5963.7659    4.1752997 
  226000    17.873046      400    4008.8935   -11614.616    17.873046    17.873046    17.873046   -9720.1415   -16642.254    976.72228   -13494.893    5709.4692    4.3612652 
  227000    17.943201      400    3817.4544   -11620.209    17.943201    17.943201    17.943201   -2814.0428    -10962.01    11896.259   -9376.3773    5776.9654    4.3103097 
  228000    18.166097      400    3993.8688    -11605.31    18.166097    18.166097    18.166097    -582.5751    1789.7005   -6353.6003    2816.1745    5994.9405    4.1535874 
  229000    18.135659      400    3647.1414   -11604.349    18.135659    18.135659    18.135659   -3116.2978    -9480.479   -13391.983    13523.569    5964.8567    4.1745361 
  230000    18.351771      400    3456.7318   -11599.453    18.351771    18.351771    18.351771    1965.0536   -1220.0848    6810.7169    304.52873     6180.647    4.0287869 
  231000    18.410362      400    3921.0985   -11623.668    18.410362    18.410362    18.410362   -6073.9725   -13848.784   -12340.826    7967.6926    6240.0343    3.9904443 
  232000    18.441889      400    3718.0818   -11615.536    18.441889    18.441889    18.441889   -3759.7245   -11087.623   -3656.6541    3465.1038    6272.1468    3.9700138 
  233000    18.302593      400    3902.9684   -11620.466    18.302593    18.302593    18.302593   -180.81372    2272.9228   -2277.5025   -537.86151    6131.0928    4.0613494 
  234000    18.323544      400     3695.668   -11619.956    18.323544    18.323544    18.323544   -9621.0973   -21310.401   -6667.8617   -885.02945    6152.1711    4.0474345 
  235000    18.138038      400    3868.3695   -11620.266    18.138038    18.138038    18.138038    844.70005   -20665.841    26916.371   -3716.4298    5967.2046    4.1728936 
  236000    18.408773      400    3931.6338   -11609.903    18.408773    18.408773    18.408773   -3500.9877    -14966.47    6795.8138   -2332.3069    6238.4186    3.9914779 
  237000    18.148775      400    4080.5195   -11621.312    18.148775    18.148775    18.148775   -2475.7174   -4935.8436   -16751.445    14260.137    5977.8082    4.1654916 
  238000    18.425867      400    3968.7549   -11618.757    18.425867    18.425867    18.425867    1240.1627    14228.059    -9372.368   -1135.2033    6255.8131    3.9803794 
  239000    18.506128      400    3830.0135   -11607.602    18.506128    18.506128    18.506128    2842.0793     7035.009    4234.0186   -2742.7897    6337.9187    3.9288149 
  240000    18.105419      400    3912.5753   -11615.018    18.105419    18.105419    18.105419   -1336.2698   -1468.9695   -8252.2181    5712.3784    5935.0686    4.1954881 
  241000    18.007893      400    3860.9235   -11610.492    18.007893    18.007893    18.007893    8901.2928    7285.4557    5596.5676    13821.855    5839.6755    4.2640228 
  242000    17.917734      400     3919.103   -11630.564    17.917734    17.917734    17.917734   -4011.8787   -8843.4401     15670.42   -18862.617     5752.402    4.3287152 
  243000    18.169093      400    3591.8078    -11607.73    18.169093    18.169093    18.169093    1894.4094    1633.6175    15994.487   -11944.877    5997.9075    4.1515328 
  244000     18.24861      400    3600.2026   -11618.766     18.24861     18.24861     18.24861   -1204.1218    6946.5625   -4537.0081   -6021.9199    6077.0015    4.0974994 
  245000     17.97714      400    3775.8558   -11624.697     17.97714     17.97714     17.97714   -264.39475   -16291.657   -4031.3522    19529.825    5809.8079    4.2859437 
  246000    18.162741      400    3641.2364   -11607.158    18.162741    18.162741    18.162741     -1028.95   -7187.4986    1439.4599    2661.1887    5991.6191      4.15589 
  247000    18.237779      400    3648.8569   -11599.709    18.237779    18.237779    18.237779    -2823.981    8370.4329   -199.39752   -16642.978    6066.1875    4.1048038 
  248000    18.012524      400    3720.7354   -11603.949    18.012524    18.012524    18.012524    6854.9779    3994.1194    377.85087    16192.963    5844.1816    4.2607351 
  249000    18.044941      400    3459.5291   -11615.092    18.044941    18.044941    18.044941    761.35353   -14292.942    18687.774   -2110.7717     5875.792    4.2378133 
  250000    18.074811      400    3834.6777    -11636.71    18.074811    18.074811    18.074811    1590.8671    2375.1514   -18904.656    21302.106    5905.0189    4.2168383 
  251000    18.322905      400    4031.5791   -11616.131    18.322905    18.322905    18.322905   -5523.9215   -1473.1612    -3608.234   -11490.369    6151.5281    4.0478576 
  252000    18.537045      400    3722.8247   -11613.284    18.537045    18.537045    18.537045   -3793.5813   -3749.0895    52.445268   -7684.0996    6369.7369    3.9091897 
  253000     18.23405      400    3642.7121   -11604.386     18.23405     18.23405     18.23405   -1919.4104   -17234.368   -232.71786    11708.854    6062.4671    4.1073229 
  254000    18.322975      400    3695.8639   -11639.854    18.322975    18.322975    18.322975     1396.966    14395.897   -3123.1118   -7081.8867    6151.5978    4.0478117 
  255000    18.274199      400    3961.5398   -11595.771    18.274199    18.274199    18.274199   -2748.6459   -10399.437   -2524.8786    4678.3776    6102.6025    4.0803099 
  256000    18.043023      400    3758.9902   -11609.468    18.043023    18.043023    18.043023   -2405.3328    -746.4894    -13774.14    7304.6308    5873.9187    4.2391649 
  257000    18.124023      400    3774.0964   -11612.896    18.124023    18.124023    18.124023    3546.5908    1859.4356   -2439.8283    11220.165    5953.3826    4.1825818 
  258000    18.092397      400    3716.0917    -11602.35    18.092397    18.092397    18.092397    2833.2206    7888.1924    13852.822   -13241.353    5922.2714     4.204554 
  259000    18.221127      400    3566.2075    -11617.05    18.221127    18.221127    18.221127   -6320.5668   -11190.502    4275.1778   -12046.376    6049.5868    4.1160678 
  260000    18.203543      400    3768.3725   -11613.623    18.203543    18.203543    18.203543    235.29418   -2468.3339    10124.377   -6950.1606    6032.0898    4.1280071 
  261000    18.161238      400    3638.9449   -11611.453    18.161238    18.161238    18.161238    1687.5188   -3353.8908   -1465.7581    9882.2054    5990.1312    4.1569222 
  262000     18.09558      400    3780.8776   -11596.475     18.09558     18.09558     18.09558    2537.3176    8187.2283   -270.40766   -304.86786     5925.398    4.2023354 
  263000    18.002821      400    3995.2666   -11605.761    18.002821    18.002821    18.002821    3795.5537   -14876.371    16787.769    9475.2625    5834.7425    4.2676279 
  264000    18.143371      400     3850.464   -11613.994    18.143371    18.143371    18.143371    2889.0001    440.42408   -14595.766    22822.342    5972.4692    4.1692152 
  265000    17.946422      400    3619.8813   -11619.667    17.946422    17.946422    17.946422   -834.44807    15177.737   -5800.4068   -11880.674     5780.077    4.3079893 
  266000    18.052728      400    4181.1625   -11614.177    18.052728    18.052728    18.052728    3897.4114    6950.6373    5109.4051   -367.80808    5883.4024    4.2323316 
  267000    18.141955      400    3716.7133   -11611.127    18.141955    18.141955    18.141955    1011.2327   -7958.3272   -8150.5995    19142.625    5971.0714    4.1701913 
  268000    18.024757      400    3587.4421   -11595.506    18.024757    18.024757    18.024757   -5290.5821    2633.6794     3407.455   -21912.881    5856.0965    4.2520662 
  269000    17.963183      400     3808.756   -11612.316    17.963183    17.963183    17.963183   -1962.4082    7590.8032   -7441.5784   -6036.4495    5796.2874    4.2959412 
  270000    18.131868      400     3731.819   -11610.681    18.131868    18.131868    18.131868    -3110.688   -18535.184    11277.792   -2074.6723    5961.1173    4.1771548 
  271000    18.199305      400    4087.9972   -11617.004    18.199305    18.199305    18.199305    -783.7339    5806.2105   -5623.5654   -2533.8468    6027.8776    4.1308917 
  272000    18.123936      400    3608.3479   -11620.901    18.123936    18.123936    18.123936    -2226.603   -12554.804    13035.355   -7160.3597     5953.297    4.1826419 
  273000    17.889226      400    3802.9919   -11618.381    17.889226    17.889226    17.889226   -3184.6163   -5868.0028   -6693.1959    3007.3498    5724.9894     4.349442 
  274000    18.198223      400    3948.9064   -11597.432    18.198223    18.198223    18.198223    1801.9194    11244.445    4678.7928   -10517.479    6026.8022    4.1316288 
  275000    17.985634      400    3876.2424   -11634.416    17.985634    17.985634    17.985634   -768.04124    9338.6337    1413.5919   -13056.349    5818.0473     4.279874 
  276000    18.106012      400    3623.1575   -11600.247    18.106012    18.106012    18.106012   -5551.2398   -11204.399   -5735.7448    286.42422    5935.6514    4.1950761 
  277000    18.210563      400    3929.1064   -11616.491    18.210563    18.210563    18.210563   -888.41322    18493.528   -18460.183   -2698.5847     6039.071    4.1232351 
  278000    18.148651      400     3687.625   -11619.964    18.148651    18.148651    18.148651    1616.9746   -6458.2865   -9861.1886    21170.399    5977.6855    4.1655771 
  279000    18.534142      400    3874.9252   -11623.868    18.534142    18.534142    18.534142    334.88291   -1332.7602   -7738.7798    10076.189     6366.745    3.9110267 
  280000    18.247369      400    3929.5673   -11613.325    18.247369    18.247369    18.247369   -836.11162    10033.506    12.114157   -12553.955    6075.7617    4.0983355 
  281000    18.239939      400    3924.8098   -11613.464    18.239939    18.239939    18.239939    3433.2118   -15219.022    9624.8878     15893.77    6068.3429    4.1033458 
  282000     18.26526      400    3656.2058   -11617.857     18.26526     18.26526     18.26526    4139.6183    7976.0099    3146.9674    1295.8775    6093.6509     4.086304 
  283000    18.156991      400    3676.5512   -11610.772    18.156991    18.156991    18.156991    3106.5672   -6586.9541    14452.498    1454.1573    5985.9305    4.1598395 
  284000    18.241926      400    3954.3103   -11622.669    18.241926    18.241926    18.241926    3491.5475   -1611.7657    12731.239   -644.83063     6070.327    4.1020047 
  285000    18.394889      400    3965.8594   -11610.954    18.394889    18.394889    18.394889   -3215.7182    10334.111   -9738.4501   -10242.816    6224.3138    4.0005228 
  286000    18.247765      400    3914.2248   -11612.737    18.247765    18.247765    18.247765    6.8003305    2408.8838   -4945.3952    2556.9123    6076.1581    4.0980681 
  287000    18.310662      400    3796.1572   -11608.763    18.310662    18.310662    18.310662    2153.6114    5665.5862    3841.5375   -3046.2895    6139.2048    4.0559829 
  288000    18.161027      400    3567.6865   -11616.914    18.161027    18.161027    18.161027   -1571.1377    22295.203   -6777.1503   -20231.466    5989.9225    4.1570671 
  289000    18.187325      400    3876.6339   -11627.625    18.187325    18.187325    18.187325   -2516.4108   -10774.745   -8590.0909    11815.603    6015.9812    4.1390604 
  290000    18.156551      400    3663.2053   -11611.476    18.156551    18.156551    18.156551    534.57674    15930.941    -6532.677   -7794.5339    5985.4947    4.1601423 
  291000    18.232216      400    3746.8339   -11607.854    18.232216    18.232216    18.232216   -3010.6255    10649.159   -7684.7212   -11996.315    6060.6385    4.1085621 
  292000    18.177278      400    3615.8749   -11613.954    18.177278    18.177278    18.177278    162.78795   -15104.559    22695.008   -7102.0853    6006.0168    4.1459274 
  293000    18.202932      400    3683.6809   -11610.018    18.202932    18.202932    18.202932   -6451.9579   -6619.0908   -7050.4565   -5686.3264    6031.4821    4.1284231 
  294000    18.305339      400    3653.3632   -11619.171    18.305339    18.305339    18.305339    119.70083   -3049.7618    3736.8549   -327.99061    6133.8524    4.0595222 
  295000    18.471263      400    3537.7934   -11613.264    18.471263    18.471263    18.471263    1947.1783    3433.9572   -211.25788    2618.8357    6302.1649    3.9511041 
  296000    18.185199      400    3665.6967   -11609.597    18.185199    18.185199    18.185199   -3320.8073   -14627.983     2817.095    1848.4664    6013.8716    4.1405124 
  297000    18.221457      400    3610.5918   -11625.238    18.221457    18.221457    18.221457   -2262.0921    8225.0445   -10359.875   -4651.4457    6049.9156    4.1158442 
  298000    18.206356      400    3508.7125   -11613.588    18.206356    18.206356    18.206356    4752.9922    283.20781   -6364.0571    20339.826    6034.8862    4.1260943 
  299000    18.267031      400    3825.0065    -11611.66    18.267031    18.267031    18.267031   -376.60244   -19545.885    12838.437    5577.6399    6095.4233    4.0851158 
  300000     18.17792      400    3808.7995   -11623.188     18.17792     18.17792     18.17792   -4343.8641   -7079.0478   -19432.187    13479.642    6006.6534     4.145488 
  301000      18.1724      400    3781.5669    -11608.28      18.1724      18.1724      18.1724   -866.88714   -9810.3297    15256.118   -8046.4496    6001.1833    4.1492666 
  302000    18.147186      400    3614.8836   -11628.396    18.147186    18.147186    18.147186   -181.87969    7069.8227   -441.56694   -7173.8948    5976.2378    4.1665861 
  303000    17.993907      400    3755.7828   -11611.622    17.993907    17.993907    17.993907    1666.8473   -444.72433    -6294.648    11739.914    5826.0797    4.2739734 
  304000    18.168575      400    3995.9149   -11629.002    18.168575    18.168575    18.168575    6061.6973    -1630.373    11419.589    8395.8764    5997.3944     4.151888 
  305000    17.950807      400    3550.2579   -11613.505    17.950807    17.950807    17.950807    1436.2997    8483.8638   -1162.1186   -3012.8461    5784.3145    4.3048333 
  306000    18.212128      400    3698.0447   -11611.683    18.212128    18.212128    18.212128    601.98411   -2664.2954    4018.2972    451.95053    6040.6279    4.1221724 
  307000    18.234411      400     3649.189    -11632.99    18.234411    18.234411    18.234411   -1376.4517   -227.21129   -13153.534    9251.3905    6062.8276    4.1070786 
  308000    18.413571      400    3976.9098   -11617.117    18.413571    18.413571    18.413571    1195.6955    7956.6877   -3397.7064   -971.89493    6243.2985     3.988358 
  309000    18.330953      400    3578.9503    -11606.63    18.330953    18.330953    18.330953   -932.93516   -4766.3352   -4911.1704    6878.7001    6159.6368    4.0425289 
  310000    18.268041      400     3751.127   -11604.045    18.268041    18.268041    18.268041   -4226.8835    24744.348   -32650.246   -4774.7527    6096.4351    4.0844378 
  311000    18.158629      400    3722.6993   -11625.963    18.158629    18.158629    18.158629    4940.9733    1975.8226    2379.2008    10467.897      5987.55    4.1587143 
  312000    18.085894      400    3904.9486   -11620.497    18.085894    18.085894    18.085894    5175.0941    10886.611   -7227.1903    11865.861    5915.8879    4.2090909 
  313000     18.08864      400    3732.5975   -11615.603     18.08864     18.08864     18.08864    568.16257    16768.157   -6830.5237   -8233.1451    5918.5832    4.2071741 
  314000    18.147713      400    3483.8046   -11619.833    18.147713    18.147713    18.147713    3361.8583    3950.6005   -3295.1744    9430.1488     5976.758    4.1662235 
  315000    17.817567      400    3919.1284   -11619.653    17.817567    17.817567    17.817567   -1568.1081   -2866.6921   -15931.339    14093.707    5656.4666    4.4021315 
  316000    18.071621      400    3965.2637   -11628.583    18.071621    18.071621    18.071621    -3079.389   -5136.7725   -12437.429    8336.0348    5901.8926     4.219072 
  317000    18.133143      400     3607.156   -11611.106    18.133143    18.133143    18.133143   -2618.2348    18791.378    -16938.79   -9707.2925    5962.3749    4.1762737 
  318000    18.096716      400    3653.8434   -11615.375    18.096716    18.096716    18.096716   -810.29166    15478.817   -26680.567    8770.8743    5926.5144    4.2015438 
  319000    18.053073      400    3746.6013   -11615.252    18.053073    18.053073    18.053073    3444.4272      -4396.3    8847.2193    5882.3625    5883.7397     4.232089 
  320000    17.883707      400     3325.418   -11630.464    17.883707    17.883707    17.883707   -1190.6065   -6887.9909   -1203.9665    4520.1378    5719.6919    4.3534705 
  321000    18.087874      400    3906.4837   -11622.868    18.087874    18.087874    18.087874    -5086.048    -12862.47    -2083.087   -312.58683    5917.8314    4.2077085 
  322000     18.18819      400     3743.151   -11620.766     18.18819     18.18819     18.18819    2091.8914   -5890.9553    10766.885    1399.7446    6016.8393    4.1384701 
  323000    18.413789      400    3901.5429   -11609.614    18.413789    18.413789    18.413789    1231.9952    8816.4544   -9501.6634    4381.1946    6243.5199    3.9882166 
  324000    18.270078      400    3704.8301   -11617.147    18.270078    18.270078    18.270078    5280.0521   -961.61556    12609.266    4192.5054    6098.4747    4.0830718 
  325000    18.268412      400    4144.1957   -11627.786    18.268412    18.268412    18.268412    1253.4573   -7018.4397    9293.6723    1485.1392    6096.8062    4.0841891 
  326000    18.141346      400    3723.7277   -11632.587    18.141346    18.141346    18.141346    2298.9241   -7260.8861    20449.833   -6292.1741      5970.47    4.1706113 
  327000    18.066507      400    3631.6451   -11616.987    18.066507    18.066507    18.066507   -243.01208    6183.5599   -5420.2255   -1492.3706    5896.8839    4.2226556 
  328000    18.303701      400    3764.0467   -11620.684    18.303701    18.303701    18.303701   -712.37244    8353.1133   -5715.2613   -4774.9693     6132.206    4.0606121 
  329000    18.067589      400    3499.4751   -11631.016    18.067589    18.067589    18.067589     1857.502   -14819.182    5874.7757    14516.912    5897.9433    4.2218971 
  330000    18.164917      400    3710.1669   -11616.112    18.164917    18.164917    18.164917    -10798.47   -16602.886   -8995.5363   -6796.9876    5993.7729    4.1543966 
  331000    17.989398      400    3586.0791   -11630.711    17.989398    17.989398    17.989398     786.6264   -5228.7255   -7004.0766    14592.681    5821.7006    4.2771883 
  332000    17.965678      400    3852.6295    -11608.93    17.965678    17.965678    17.965678     2678.101    -2362.333    12859.999   -2463.3633    5798.7028    4.2941517 
  333000    18.384277      400    3461.1586   -11610.187    18.384277    18.384277    18.384277   -3764.3675    7701.0762   -7217.6388    -11776.54    6213.5481    4.0074542 
  334000    18.239196      400    3863.3837    -11605.74    18.239196    18.239196    18.239196   -962.18695     3684.004    3292.5451     -9863.11    6067.6021    4.1038469 
  335000    18.216101      400     3405.816    -11604.79    18.216101    18.216101    18.216101   -2324.7461   -10561.383    1939.7652    1647.3799    6044.5822    4.1194757 
  336000    18.271685      400    3839.0632   -11608.752    18.271685    18.271685    18.271685    1791.1866    -6449.391    5184.8123    6638.1386    6100.0841    4.0819945 
  337000    18.276766      400    3519.2651   -11632.324    18.276766    18.276766    18.276766    1889.4879   -3356.1602    3298.8502    5725.7738    6105.1744    4.0785911 
  338000    18.348726      400    3608.4616   -11615.242    18.348726    18.348726    18.348726   -1497.9391    -10842.33    12738.098   -6389.5847    6177.5707    4.0307931 
  339000    18.047385      400    3676.7924   -11637.366    18.047385    18.047385    18.047385   -3456.0559    9900.1476   -14532.999   -5735.3165    5878.1795    4.2360921 
  340000    18.113647      400    3563.4382   -11614.288    18.113647    18.113647    18.113647     1985.738    10187.795    13940.989   -18171.571    5943.1642    4.1897732 
  341000    18.138388      400    3603.4236   -11638.198    18.138388    18.138388    18.138388   -103.77946   -3499.0229   -4551.1804    7738.8649    5967.5502    4.1726519 
  342000    18.319763      400    3826.3394   -11609.193    18.319763    18.319763    18.319763    600.70211   -14452.158    14046.807     2207.457     6148.364    4.0499407 
  343000    18.401966      400    3849.3977   -11619.266    18.401966    18.401966    18.401966    7749.1769    5634.9614    14224.104    3388.4649    6231.5011    3.9959087 
  344000    18.406339      400    3828.7111   -11606.519    18.406339    18.406339    18.406339    2906.6456    4176.2933    10848.887    -6305.243    6235.9442    3.9930617 
  345000    18.350349      400    3632.6979   -11615.648    18.350349    18.350349    18.350349   -282.91208    7258.2335   -8263.3096    156.33988    6179.2106    4.0297234 
  346000    18.071172      400    3734.5191   -11623.066    18.071172    18.071172    18.071172   -4378.1866   -12568.531   -8787.9863    8221.9572    5901.4527    4.2193865 
  347000    17.970938      400    3440.2923   -11618.968    17.970938    17.970938    17.970938   -2093.7997    1394.7739   -3673.4803   -4002.6926    5803.7975    4.2903823 
  348000    17.937073      400     3822.565   -11623.321    17.937073    17.937073    17.937073    -191.6034   -6482.9311    4191.8597    1716.2612    5771.0489    4.3147286 
  349000    17.962396      400    3551.3505   -11636.324    17.962396    17.962396    17.962396    917.67902   -16220.596    12175.646    6797.9875     5795.525    4.2965063 
  350000    18.126958      400    3723.7702   -11606.707    18.126958    18.126958    18.126958   -5002.6694   -7937.7449    2550.5908   -9620.8541    5956.2752    4.1805505 
  351000     18.16785      400    3546.3469    -11618.42     18.16785     18.16785     18.16785    1377.7696    9833.6377   -7897.2163    2196.8874    5996.6765    4.1523851 
  352000    17.997703      400    3688.5145   -11607.158    17.997703    17.997703    17.997703    1810.9596   -7970.0327   -8336.9915    21739.903    5829.7671      4.27127 
  353000     18.00105      400    3596.6058   -11629.061     18.00105     18.00105     18.00105    7603.6295    1025.4149    8396.8938     13388.58    5833.0209    4.2688874 
  354000    18.134544      400     3842.335   -11625.802    18.134544    18.134544    18.134544    6686.3931    22569.808   -23240.271    20729.642    5963.7566    4.1753061 
  355000    18.084379      400    3450.4708    -11631.85    18.084379    18.084379    18.084379   -1414.1268    10466.219   -9279.2122   -5429.3877    5914.4018    4.2101485 
  356000    18.315219      400    3668.8166   -11632.986    18.315219    18.315219    18.315219   -3561.3021   -23338.692    5170.7353      7484.05    6143.7903    4.0529557 
  357000    18.480577      400    3887.4521   -11617.337    18.480577    18.480577    18.480577    4098.7667    8339.1386   -19927.097    23884.258    6311.7037    3.9451329 
  358000    18.171892      400    3907.5758   -11613.964    18.171892    18.171892    18.171892    5329.3245    13677.805    7504.3447   -5194.1762    6000.6799    4.1496147 
  359000    18.537876      400    3791.2164   -11614.173    18.537876    18.537876    18.537876    1342.3949   -3890.1533   -11306.227    19223.565    6370.5941    3.9086637 
  360000    18.299961      400    3838.8865   -11611.126    18.299961    18.299961    18.299961   -4251.7914     6880.765   -12908.496   -6727.6436    6128.4483    4.0631019 
  361000    18.193299      400    3665.9189   -11615.023    18.193299    18.193299    18.193299     4584.028   -7569.0227    13337.311    7983.7958    6021.9112    4.1349846 
  362000    18.033192      400    3680.2029   -11634.617    18.033192    18.033192    18.033192     3360.436    12441.514   -9930.5005    7570.2949     5864.322     4.246102 
  363000    18.193565      400    3901.0375    -11611.04    18.193565    18.193565    18.193565    99.827783    590.52914   -5090.7621    4799.7163    6022.1756     4.134803 
  364000     18.27938      400     3942.727   -11628.164     18.27938     18.27938     18.27938   -1793.7968    10965.219    -9687.521   -6659.0884     6107.794    4.0768417 
  365000    18.478653      400    3743.0062   -11608.486    18.478653    18.478653    18.478653    1843.9744    19181.406   -16364.075    2714.5928     6309.732    3.9463656 
  366000    18.359565      400    3526.2141   -11628.241    18.359565    18.359565    18.359565    2524.9758   -17852.186    15079.362    10347.752    6188.5248    4.0236584 
  367000    18.240971      400    3573.9016   -11604.711    18.240971    18.240971    18.240971   -2048.8356     4187.005    2424.2902   -12757.802    6069.3738    4.1026489 
  368000    18.213731      400    3345.9964   -11623.119    18.213731    18.213731    18.213731   -2778.8179    5813.5944   -21129.863    6979.8154    6042.2227    4.1210844 
  369000    17.879838      400    3703.7061    -11617.13    17.879838    17.879838    17.879838   -405.05677   -1747.8471    17814.226    -17281.55    5715.9802    4.3562974 
  370000    18.186911      400    3891.6471   -11614.555    18.186911    18.186911    18.186911    2013.7972    2283.2981    1446.1657    2311.9278    6015.5706     4.139343 
  371000    17.961741      400    3685.8761   -11627.217    17.961741    17.961741    17.961741   -4712.1701   -12178.603    6398.0296   -8355.9366    5794.8913    4.2969762 
  372000    17.995115      400    3883.3129   -11632.687    17.995115    17.995115    17.995115   -1709.1736    13089.011   -3060.0761   -15156.456    5827.2531    4.2731128 
  373000    18.051134      400    3587.1435   -11628.182    18.051134    18.051134    18.051134   -4169.8453   -8338.1828   -12914.688    8743.3346    5881.8436    4.2334532 
  374000    18.166289      400    3462.7484   -11614.614    18.166289    18.166289    18.166289   -3909.4395   -8771.2148     3042.927   -6000.0307    5995.1305    4.1534558 
  375000    18.350193      400    3923.6519   -11629.689    18.350193    18.350193    18.350193    4170.6471   -1342.7631    14124.928   -270.22403    6179.0524    4.0298266 
  376000     18.13991      400    3757.5577    -11611.31     18.13991     18.13991     18.13991    866.25784    2146.4201     27841.35   -27388.997    5969.0526    4.1716017 
  377000    18.107655      400    3710.6976   -11630.846    18.107655    18.107655    18.107655    1723.7041    2172.4685    1912.2797    1086.3641    5937.2674    4.1939344 
  378000    17.920542      400    3561.1043   -11626.859    17.920542    17.920542    17.920542   -1349.3603   -2631.3286   -8063.2172    6646.4649     5755.107    4.3266806 
  379000    18.258221      400    3979.6181   -11633.171    18.258221    18.258221    18.258221    -1490.741   -8276.7602   -5205.7138     9010.251    6086.6083    4.0910321 
  380000    18.335786      400    3905.1353   -11615.679    18.335786    18.335786    18.335786   -784.12943   -235.46096   -5400.9852    3284.0579    6164.5101    4.0393331 
  381000    18.178472      400    3505.0297   -11606.968    18.178472    18.178472    18.178472   -1801.9062   -1360.9343   -8891.2853    4846.5011    6007.2009    4.1451102 
  382000    18.106778      400    3580.8263    -11628.36    18.106778    18.106778    18.106778   -4467.5674   -7624.2174   -5350.5276   -427.95726    5936.4047    4.1945438 
  383000    18.225082      400    3777.0596   -11634.118    18.225082    18.225082    18.225082   -1481.0176   -13212.761    6156.1732    2613.5346     6053.527    4.1133888 
  384000    18.291844      400     3685.593   -11629.648    18.291844    18.291844    18.291844   -1033.4923   -4800.1949    2444.5186   -744.80066    6120.2965    4.0685136 
  385000    18.105392      400    3845.5756   -11627.994    18.105392    18.105392    18.105392   -1605.8731   -2742.1187    8506.2948   -10581.795    5935.0422    4.1955068 
  386000    18.121833      400    3625.4955   -11641.921    18.121833    18.121833    18.121833    1910.5228    11945.781    8551.7886   -14766.001    5951.2248    4.1840983 
  387000    18.094287      400    3525.4378   -11628.399    18.094287    18.094287    18.094287    456.73249   -14556.233    5382.4706     10543.96    5924.1281    4.2032362 
  388000    18.256837      400    3874.7261   -11629.305    18.256837    18.256837    18.256837   -1331.2652     5350.981    4080.3617   -13425.138    6085.2247    4.0919622 
  389000     18.20106      400    3550.9107   -11633.757     18.20106     18.20106     18.20106    1502.7853   -5980.0657      8350.05    2138.3716     6029.621    4.1296973 
  390000    17.949974      400    3617.6132   -11622.333    17.949974    17.949974    17.949974    2801.9507   -13799.684    7424.5673    14780.969    5783.5096    4.3054324 
  391000    18.204037      400    3649.5641   -11618.844    18.204037    18.204037    18.204037    1298.7282    1061.7507    9197.0066   -6362.5726    6032.5806    4.1276712 
  392000    18.415167      400    3698.7917   -11620.571    18.415167    18.415167    18.415167   -523.46739   -17379.684    6748.6477    9060.6345    6244.9219    3.9873212 
  393000    17.959048      400    3691.8342   -11625.981    17.959048    17.959048    17.959048   -2333.5794    10485.447   -13689.751   -3796.4337    5792.2849    4.2989097 
  394000    18.065927      400    3809.4696   -11633.507    18.065927    18.065927    18.065927    7174.5588    5432.0422    10680.156    5411.4778    5896.3157    4.2230625 
  395000    18.258192      400    3707.3166   -11620.209    18.258192    18.258192    18.258192    1726.1865    11950.588     5322.221   -12094.249    6086.5796    4.0910514 
  396000    18.055179      400    3787.3303   -11626.581    18.055179    18.055179    18.055179   -4556.2703    5550.2446   -10882.317   -8336.7381    5885.7983    4.2306087 
  397000    18.158912      400    3855.7282   -11624.854    18.158912    18.158912    18.158912    387.36596   -11259.504    1138.5957    11283.006    5987.8303    4.1585196 
  398000    18.136111      400    3687.3179   -11633.005    18.136111    18.136111    18.136111   -120.64574   -6989.6378    1977.5163    4650.1843    5965.3024    4.1742242 
  399000    18.059214      400    3653.4351    -11620.12    18.059214    18.059214    18.059214    4419.7088    7595.7538   -6660.4914    12323.864     5889.746    4.2277731 
  400000    18.085397      400    3778.5411   -11616.778    18.085397    18.085397    18.085397   -95.688225   -144.34512     -4885.75    4743.0304    5915.3999    4.2094381 
  401000    18.072403      400    3808.1714   -11626.002    18.072403    18.072403    18.072403    193.26452   -1786.8714    3356.6769   -990.01187    5902.6593     4.218524 
  402000    18.049074      400    3677.8277   -11631.692    18.049074    18.049074    18.049074    -2737.961   -16679.383     3594.514    4870.9862    5879.8296    4.2349033 
  403000    17.927709      400    3393.8627   -11619.584    17.927709    17.927709    17.927709   -2889.2228   -6816.7158    5595.1561   -7446.1087    5762.0154    4.3214931 
  404000    18.151984      400    3783.6323   -11620.227    18.151984    18.151984    18.151984      5616.04    9943.9329    5530.1513    1374.0356    5980.9794     4.163283 
  405000     18.06122      400     3480.523   -11608.704     18.06122     18.06122     18.06122    937.09831    8511.7263   -8263.9612    2563.5299    5891.7081    4.2263651 
  406000    18.062414      400    3692.9313   -11624.966    18.062414    18.062414    18.062414    266.17849    1643.8279   -2144.8974     1299.605    5892.8771    4.2255267 
  407000    18.083368      400    3851.5981   -11628.862    18.083368    18.083368    18.083368   -3201.9086    3546.5372     6232.975   -19385.238      5913.41    4.2108546 
  408000    17.857103      400    3615.7917   -11627.087    17.857103    17.857103    17.857103   -1011.1931    13516.291   -8864.2234   -7685.6474     5694.204     4.372957 
  409000    18.172742      400    3886.2413   -11615.099    18.172742    18.172742    18.172742    2696.9965    8489.6184     20600.24   -20998.869    6001.5215    4.1490328 
  410000    18.137242      400     3852.521   -11631.473    18.137242    18.137242    18.137242     4767.968    -13427.04    4557.0518    23173.892    5966.4187    4.1734433 
  411000     18.02394      400     3912.355   -11609.706     18.02394     18.02394     18.02394   -66.136716   -1003.5059   -1850.0019    2655.0977    5855.3007    4.2526441 
  412000    18.112893      400    3706.2402   -11631.588    18.112893    18.112893    18.112893    2089.6077   -19083.015    25723.427   -371.58902    5942.4218    4.1902966 
  413000    18.266307      400    3787.6399   -11621.541    18.266307    18.266307    18.266307    1748.9233   -10650.207    1714.4447    14182.533    6094.6985    4.0856015 
  414000    18.222457      400    3624.1173   -11619.403    18.222457    18.222457    18.222457    2828.0128    -2961.313   -13446.103    24891.454    6050.9116    4.1151667 
  415000    18.010816      400    3526.7035    -11641.24    18.010816    18.010816    18.010816    81.705569   -5784.1716        11637   -5607.7116    5842.5199    4.2619469 
  416000    18.192391      400    3673.5372   -11635.033    18.192391    18.192391    18.192391   -1134.2766   -5285.7025   -3012.4679    4895.3404    6021.0103    4.1356032 
  417000    18.194074      400    3481.7711    -11625.03    18.194074    18.194074    18.194074    -4159.174   -14863.066    5054.0162   -2668.4722    6022.6813    4.1344558 
  418000    18.276837      400    3361.3932   -11625.467    18.276837    18.276837    18.276837   -388.03322   -1967.2466    8351.7271   -7548.5802    6105.2453    4.0785437 
  419000    17.974877      400    3937.0489   -11622.236    17.974877    17.974877    17.974877    -4420.824    14.842758    902.98557     -14180.3    5807.6144    4.2875625 
  420000    17.968826      400    3431.2989   -11630.566    17.968826    17.968826    17.968826   -578.92967    5576.9368   -11885.426    4571.7004    5801.7512    4.2918954 
  421000    17.930533      400    3641.5832   -11631.471    17.930533    17.930533    17.930533   -2634.9311    2556.5905   -5506.9311   -4954.4528    5764.7386    4.3194517 
  422000    18.051002      400    3721.9302   -11634.004    18.051002    18.051002    18.051002    1747.4608    9720.7133   -9082.7596    4604.4286    5881.7143    4.2335463 
  423000    18.190286      400    3708.6588   -11620.829    18.190286    18.190286    18.190286    1845.9337   -3440.5528   -1008.5658    9986.9198    6018.9201    4.1370394 
  424000    18.152063      400    3333.9856    -11623.48    18.152063    18.152063    18.152063    1951.8902     -4897.23   -421.82778    11174.728    5981.0573    4.1632287 
  425000      18.0171      400    3578.8591   -11632.179      18.0171      18.0171      18.0171    1178.0281   -1429.0902    19099.852   -14136.677    5848.6374     4.257489 
  426000    18.171512      400    3671.3835   -11619.131    18.171512    18.171512    18.171512    482.33467    11557.866   -18120.204    8009.3422     6000.303    4.1498754 
  427000     18.20571      400    3515.0085   -11637.059     18.20571     18.20571     18.20571    4264.2744   -10603.671    12203.953    11192.542    6034.2437    4.1265336 
  428000    18.135448      400    3754.8086   -11625.087    18.135448    18.135448    18.135448     1555.704   -8461.4143   -5868.8324    18997.359    5964.6491    4.1746814 
  429000    18.177687      400    3347.9287   -11625.922    18.177687    18.177687    18.177687    177.22412    3650.3728   -1941.2985   -1177.4019    6006.4226    4.1456473 
  430000    17.973205      400    3785.6632   -11641.722    17.973205    17.973205    17.973205    3403.6985    20160.397   -13618.593    3669.2909    5805.9944    4.2887588 
  431000    18.062203      400    3701.3007   -11617.445    18.062203    18.062203    18.062203    2118.1642   -1513.0099    8764.9123   -897.40983    5892.6706    4.2256748 
  432000    17.983887      400    3635.0618   -11641.006    17.983887    17.983887    17.983887    2669.8821   -10344.169      5772.06    12581.755    5816.3522    4.2811214 
  433000    18.134304      400    3662.1334   -11615.925    18.134304    18.134304    18.134304    1653.5787   -9902.2972    16729.802   -1866.7689    5963.5204    4.1754715 
  434000    18.226332      400    3549.2538   -11634.054    18.226332    18.226332    18.226332    3337.6183   -21471.337    17790.749    13693.443    6054.7725    4.1125426 
  435000    18.336168      400    3524.4013   -11627.033    18.336168    18.336168    18.336168   -1583.8233    1121.2132     3411.614    -9284.297     6164.896    4.0390803 
[...]
 3708000    17.626028      400    366.07157   -11873.825    17.626028    17.626028    17.626028    25.673219    2344.5055   -4678.6675    2411.1817    5475.9992    4.5472084 
 3709000    17.612599      400    336.72581   -11875.344    17.612599    17.612599    17.612599    346.98107    7226.6743   -4512.2008   -1673.5304     5463.492    4.5576181 
 3710000    17.633787      400    359.93267   -11874.875    17.633787    17.633787    17.633787   -103.25236    3818.5474   -2970.5654   -1157.7391    5483.2337    4.5412089 
 3711000    17.618578      400    334.13524   -11874.819    17.618578    17.618578    17.618578   -459.21128   -698.70537   -3042.2857    2363.3572    5469.0581    4.5529796 
 3712000    17.622335      400    323.52914   -11874.694    17.622335    17.622335    17.622335   -237.74042    3121.3638   -3708.9265   -125.65858    5472.5577     4.550068 
 3713000    17.615788      400     339.8999   -11874.464    17.615788    17.615788    17.615788    242.21753    1323.8669   -1166.3075    569.09312    5466.4605    4.5551431 
 3714000    17.619351      400    330.26903    -11876.57    17.619351    17.619351    17.619351    609.22729    1866.1306     597.8524   -636.30108    5469.7785    4.5523799 
 3715000    17.624645      400    357.48866   -11875.399    17.624645    17.624645    17.624645    731.66372    3628.3423   -4145.8888    2712.5376      5474.71    4.5482792 
 3716000    17.609592      400    322.95351   -11875.319    17.609592    17.609592    17.609592   -104.52974    2425.8071   -2083.2016   -656.19466    5460.6949    4.5599525 
 3717000    17.632118      400    328.30542   -11874.367    17.632118    17.632118    17.632118   -515.45165    1090.6279   -1039.2495   -1597.7334    5481.6768    4.5424987 
 3718000    17.616959      400    348.84707   -11874.715    17.616959    17.616959    17.616959   -781.88581    217.78271   -1767.8225   -795.61765    5467.5511    4.5542345 
 3719000    17.595715      400    302.39166   -11875.835    17.595715    17.595715    17.595715    470.45642    8897.3115   -4367.6496   -3118.2926    5447.7954    4.5707498 
 3720000    17.626911      400    333.78934    -11874.99    17.626911    17.626911    17.626911    80.830333    433.49344   -898.30615    707.30371    5476.8222    4.5465251 
 3721000    17.630294      400    360.43793   -11875.945    17.630294    17.630294    17.630294   -479.50916    5890.8641   -2693.5601   -4635.8315    5479.9757    4.5439088 
 3722000    17.614301      400    326.81199   -11876.028    17.614301    17.614301    17.614301   -138.34536    2644.4634   -2677.2615   -382.23798    5465.0769    4.5562963 
 3723000    17.622609      400     337.4606   -11874.421    17.622609    17.622609    17.622609   -284.80571    6186.3792   -3586.8563     -3453.94    5472.8135    4.5498554 
 3724000    17.627661      400    320.66549   -11875.483    17.627661    17.627661    17.627661    132.83012    5381.5532   -7279.4032    2296.3403    5477.5213    4.5459448 
 3725000    17.622551      400    321.69794   -11874.177    17.622551    17.622551    17.622551    494.49128    4487.3929   -3037.8526    33.933556    5472.7589    4.5499007 
 3726000     17.62302      400    337.81135   -11875.454     17.62302     17.62302     17.62302    751.01447    4806.1316   -3683.8281    1130.7399    5473.1962    4.5495372 
 3727000    17.629998      400    321.24191   -11874.818    17.629998    17.629998    17.629998   -165.61089     4707.943   -3549.0564   -1655.7192    5479.7005     4.544137 
 3728000    17.631879      400    338.11425   -11875.323    17.631879    17.631879    17.631879    139.91415    2943.7688   -2089.6492   -434.37708    5481.4539    4.5426834 
 3729000    17.630984      400    316.83634   -11877.465    17.630984    17.630984    17.630984   -597.03838   -1169.1794   -1401.2221    779.28639    5480.6197    4.5433749 
 3730000    17.628104      400    316.75929   -11875.107    17.628104    17.628104    17.628104    173.35345    5208.1543   -2627.6027   -2060.4912    5477.9342    4.5456022 
 3731000    17.630069      400    312.17732   -11875.867    17.630069    17.630069    17.630069   -815.45097   -2367.9294   -1039.6359     961.2124    5479.7659    4.5440827 
 3732000    17.639982      400    317.45829   -11875.056    17.639982    17.639982    17.639982   -80.832329    673.51826   -3668.3179    2752.3026    5489.0148     4.536426 
 3733000    17.620625      400     310.4666   -11875.677    17.620625    17.620625    17.620625   -383.39939    2203.7256   -326.35917   -3027.5646    5470.9647    4.5513928 
 3734000    17.609721      400    303.66042   -11875.681    17.609721    17.609721    17.609721    55.006274    5782.9675   -5747.3359     129.3872    5460.8145    4.5598527 
 3735000    17.612067      400    320.40493   -11874.968    17.612067    17.612067    17.612067   -168.73936    3063.8985   -5433.7849    1863.6684    5462.9973    4.5580307 
 3736000    17.621351      400    310.71689   -11877.128    17.621351    17.621351    17.621351   -322.37573    4432.4772   -4320.6576   -1078.9468    5471.6415    4.5508299 
 3737000     17.63083      400    318.07441   -11875.359     17.63083     17.63083     17.63083   -307.31949    827.94921   -2880.1673    1130.2596    5480.4763    4.5434937 
 3738000    17.623111      400    294.74032   -11876.243    17.623111    17.623111    17.623111    464.73491    2458.2574   -130.28761   -933.76503    5473.2808    4.5494669 
 3739000    17.625625      400     313.3379   -11875.566    17.625625    17.625625    17.625625   -144.48348    2382.9049   -1043.2919   -1773.0635    5475.6237    4.5475203 
 3740000     17.61011      400    315.96909   -11875.695     17.61011     17.61011     17.61011    244.46285    3104.5301   -2484.7893    113.64773    5461.1768    4.5595502 
 3741000    17.630571      400    312.53001   -11877.367    17.630571    17.630571    17.630571   -72.330441    6402.4989     206.6726   -6826.1628    5480.2347    4.5436941 
 3742000    17.622217      400    314.05314   -11876.325    17.622217    17.622217    17.622217   -387.59818    3771.2161   -3702.2821   -1231.7285    5472.4478    4.5501593 
 3743000    17.608975      400    309.03842   -11874.593    17.608975    17.608975    17.608975   -580.54085    1148.5626    -1401.225   -1488.9601    5460.1203    4.5604325 
 3744000    17.610528      400    288.21296   -11876.244    17.610528    17.610528    17.610528    305.88023     2979.214    6.7788398   -2068.3521    5461.5657    4.5592255 
 3745000    17.610896      400    297.75567   -11877.249    17.610896    17.610896    17.610896    136.85601     1974.169    3303.6289   -4867.2298    5461.9075    4.5589402 
 3746000    17.618938      400    309.91882   -11876.209    17.618938    17.618938    17.618938    -383.7019   -323.86358    112.44755   -939.68966    5469.3937    4.5527002 
 3747000    17.618019      400    307.00615   -11876.192    17.618019    17.618019    17.618019    18.624232    1900.5206   -3726.0046    1881.3567     5468.538    4.5534126 
 3748000     17.63953      400    307.21531   -11876.221     17.63953     17.63953     17.63953    565.05089    2869.4404    3305.1835   -4479.4712    5488.5931    4.5367746 
 3749000    17.616349      400    292.11845   -11877.389    17.616349    17.616349    17.616349   -218.80737    2710.6742   -3736.6768    369.58058    5466.9833    4.5547075 
 3750000    17.618059      400    310.65676    -11875.93    17.618059    17.618059    17.618059    173.12216    6972.6354    209.91003    -6663.179    5468.5752    4.5533816 
 3750001    17.618162      400     309.7946   -11875.901    17.618162    17.618162    17.618162    175.06619    6862.1626    231.75446   -6568.7185     5468.671    4.5533019 
Loop time of 3517.1 on 40 procs for 3700000 steps with 400 atoms

Performance: 90.893 ns/day, 0.264 hours/ns, 1052.002 timesteps/s
98.9% CPU use with 40 MPI tasks x 1 OpenMP threads

MPI task timing breakdown:
Section |  min time  |  avg time  |  max time  |%varavg| %total
---------------------------------------------------------------
Pair    | 664.04     | 944.21     | 1220.5     | 447.5 | 26.85
Bond    | 0.48539    | 0.54238    | 0.62378    |   4.6 |  0.02
Kspace  | 444.31     | 699.14     | 987.34     | 548.6 | 19.88
Neigh   | 64.513     | 75.627     | 86.096     |  65.5 |  2.15
Comm    | 1520.6     | 1559       | 1593.7     |  64.9 | 44.33
Output  | 119.91     | 120.55     | 145.16     |  35.9 |  3.43
Modify  | 71.602     | 74.818     | 78.311     |  19.9 |  2.13
Other   |            | 43.22      |            |       |  1.23

Nlocal:    10 ave 13 max 7 min
Histogram: 3 4 0 9 0 8 8 0 6 2
Nghost:    3971.75 ave 4024 max 3935 min
Histogram: 2 6 7 5 6 5 4 2 2 1
Neighs:    6508.55 ave 9196 max 3903 min
Histogram: 2 4 3 5 6 6 6 3 4 1

Total # of neighbors = 260342
Ave neighs/atom = 650.855
Ave special neighs/atom = 0
Neighbor list builds = 370000
Dangerous builds = 370000
WARNING: New thermo_style command, previous thermo_modify settings will be lost (../output.cpp:708)
Ewald initialization ...
  using 12-bit tables for long-range coulomb (../kspace.cpp:323)
  G vector (1/distance) = 0.210133
  estimated absolute RMS force accuracy = 0.000184742
  estimated relative force accuracy = 1.28296e-05
  KSpace vectors: actual max1d max3d = 128 4 364
                  kxmax kymax kzmax  = 4 4 4
Setting up Verlet run ...
  Unit style    : metal
  Current step  : 3750001
  Time step     : 0.001
Per MPI rank memory allocation (min/avg/max) = 14.22 | 14.22 | 14.22 Mbytes
Step Lx Atoms Temp PotEng Lx Ly Lz Press Pxx Pyy Pzz Volume v_rho 
 3750001    17.618162      400     309.7946   -11875.902    17.618162    17.618162    17.618162    146.03575    6832.3516    203.17801   -6597.4224     5468.671    4.5533019 
 3751000    17.630618      400    295.70336   -11876.856    17.630618    17.630618    17.630618    24.756317    8310.3239    -2682.336   -5553.7189    5480.2781     4.543658 
 3752000    17.631029      400    299.70398   -11875.525    17.631029    17.631029    17.631029   -277.52522    3769.8717   -1835.4868   -2766.9605    5480.6614    4.5433403 
 3753000    17.615853      400    290.64899   -11876.835    17.615853    17.615853    17.615853    231.77487    2765.1328   -2758.6859    688.87776    5466.5209    4.5550927 
 3754000    17.619864      400    303.14502   -11876.527    17.619864    17.619864    17.619864   -167.97328    7114.7644   -4063.4376   -3555.2466    5470.2563    4.5519823 
 3755000     17.61769      400    286.68073   -11876.502     17.61769     17.61769     17.61769    341.71562    5697.9132   -1569.9438   -3102.8225    5468.2316    4.5536677 
 3756000    17.604558      400    298.15112   -11876.465    17.604558    17.604558    17.604558    728.75611     8516.114   -1481.4437    -4848.402    5456.0124    4.5638661 
 3757000     17.62797      400    299.05031   -11876.098     17.62797     17.62797     17.62797    349.22456    3036.0108   -4798.0927    2809.7556    5477.8089    4.5457062 
 3758000    17.624206      400     287.9888   -11876.818    17.624206    17.624206    17.624206    -323.0918    803.27211   -1800.9938    28.446282    5474.3009    4.5486191 
 3759000    17.628167      400     324.8975   -11876.968    17.628167    17.628167    17.628167    517.11195    2652.0729    -343.4393   -757.29778    5477.9929    4.5455535 
 3760000     17.62508      400    299.82651   -11876.461     17.62508     17.62508     17.62508   -320.64873    2169.8206    378.07635   -3509.8431    5475.1151    4.5479427 
 3761000    17.618734      400    286.31479   -11877.871    17.618734    17.618734    17.618734   -150.66038   -1524.0866    1404.2174   -332.11195    5469.2035    4.5528585 
 3762000    17.625301      400    297.15858   -11875.847    17.625301    17.625301    17.625301   -952.95743    2147.0149   -3437.8727   -1568.0144    5475.3213    4.5477714 
 3763000    17.622432      400     300.4741   -11877.282    17.622432    17.622432    17.622432   -181.60023    1021.3853   -2216.7373    650.55131    5472.6478    4.5499931 
 3764000    17.621097      400     292.3228   -11876.684    17.621097    17.621097    17.621097     95.50164    6240.3306   -5284.0073   -669.81836    5471.4041    4.5510273 
 3765000    17.628906      400    318.05003   -11877.067    17.628906    17.628906    17.628906    494.10057    1638.6479    323.50438   -479.85059    5478.6823    4.5449815 
 3766000    17.619093      400     294.6078   -11878.041    17.619093    17.619093    17.619093    279.13554    3600.8519   -3743.7664    980.32112    5469.5383    4.5525798 
 3767000    17.623035      400    292.52383   -11877.064    17.623035    17.623035    17.623035   -513.64424    5879.2253   -3821.0119   -3599.1461    5473.2097    4.5495259 
 3768000    17.615978      400    313.19372    -11876.91    17.615978    17.615978    17.615978    -239.9882    4241.8768   -2122.1999   -2839.6415    5466.6372    4.5549958 
 3769000    17.634572      400    288.42067    -11877.17    17.634572    17.634572    17.634572   -138.76554    1223.4246   -3403.0682    1763.3469     5483.966    4.5406025 
 3770000    17.627094      400    304.82153     -11876.5    17.627094    17.627094    17.627094   -516.00037    5297.1082   -2970.7737   -3874.3356    5476.9927    4.5463836 
 3771000    17.629022      400    302.46447   -11877.279    17.629022    17.629022    17.629022    239.83506    1473.4677    2275.6707   -3029.6332    5478.7903    4.5448919 
 3772000    17.621014      400    321.99155   -11876.459    17.621014    17.621014    17.621014     490.7121    4034.5984   -447.22246   -2115.2397    5471.3269    4.5510916 
 3773000    17.634924      400    298.04002   -11876.735    17.634924    17.634924    17.634924   -39.737724     3980.755   -5118.8738    1018.9057    5484.2944    4.5403306 
 3774000    17.617504      400    294.46948   -11877.127    17.617504    17.617504    17.617504    434.96508    3407.0603   -1415.9864   -686.17863    5468.0586    4.5538118 
 3775000    17.628951      400    304.53321   -11876.708    17.628951    17.628951    17.628951    567.71857    5324.1634   -3993.8413    372.83357    5478.7236    4.5449472 
 3776000    17.620937      400    286.46622   -11877.276    17.620937    17.620937    17.620937    30.376115    1645.4121   -1193.6626   -360.62111    5471.2555    4.5511509 
 3777000     17.62497      400    291.93762   -11875.737     17.62497     17.62497     17.62497    1095.6662    4933.0058   -629.28169   -1016.7253    5475.0131    4.5480275 
 3778000    17.613279      400    312.61135   -11877.004    17.613279    17.613279    17.613279    885.63426    993.85847    1648.8741    14.170228    5464.1254    4.5570897 
 3779000    17.620676      400    291.06101   -11876.584    17.620676    17.620676    17.620676    419.90664   -1129.3685    1170.4954     1218.593    5471.0125    4.5513531 
 3780000    17.626442      400    312.81696   -11876.957    17.626442    17.626442    17.626442   -325.52927    3205.2732   -3992.4236   -189.43742    5476.3849    4.5468882 
 3781000    17.620389      400     288.1639   -11877.786    17.620389    17.620389    17.620389    69.224727    5204.1824   -1487.7868   -3508.7214    5470.7449    4.5515757 
 3782000    17.628223      400    295.77759   -11876.048    17.628223    17.628223    17.628223    193.35261    2706.6809   -1420.3257   -706.29737    5478.0449    4.5455103 
 3783000    17.633354      400    303.13058   -11877.786    17.633354    17.633354    17.633354   -860.97714    1281.6079   -3832.2321   -32.307173    5482.8296    4.5415436 
 3784000    17.628197      400    296.28236   -11877.312    17.628197    17.628197    17.628197   -173.78608    1971.9583   -5187.5525     2694.236    5478.0207    4.5455304 
 3785000    17.628575      400     324.9742   -11876.426    17.628575    17.628575    17.628575   -894.31962    3496.9926   -4497.6416   -1682.3099    5478.3736    4.5452376 
 3786000    17.631158      400    291.27527   -11876.579    17.631158    17.631158    17.631158   -2.2443768   -686.86516    460.39867    219.73335    5480.7814    4.5432408 
 3787000    17.627877      400    318.43442   -11876.169    17.627877    17.627877    17.627877    99.774058    7880.8205   -7139.5277   -441.97059    5477.7229    4.5457776 
 3788000    17.620687      400    286.17598   -11876.287    17.620687    17.620687    17.620687    -476.9234    3788.7134   -2794.1613   -2425.3223    5471.0227    4.5513446 
 3789000    17.621002      400    307.59565   -11876.296    17.621002    17.621002    17.621002   -105.81249    3891.9605   -2599.4517   -1609.9463    5471.3163    4.5511004 
 3790000    17.628211      400     292.7639    -11876.26    17.628211    17.628211    17.628211    31.752009    3197.1993   -1317.7467   -1784.1966    5478.0338    4.5455195 
 3791000    17.619788      400    295.07914   -11876.619    17.619788    17.619788    17.619788    144.05817    370.91365   -620.77827    682.03914    5470.1849    4.5520416 
 3792000    17.621164      400    317.22197   -11875.479    17.621164    17.621164    17.621164    259.75552    8178.2962   -4871.1181   -2527.9115     5471.467    4.5509751 
 3793000    17.611955      400    286.77788   -11876.538    17.611955    17.611955    17.611955   -321.35938    370.72274    2158.9165   -3493.7174    5462.8933    4.5581175 
 3794000    17.617297      400    325.22784   -11876.571    17.617297    17.617297    17.617297   -1183.1676    1948.4995   -1670.6576   -3827.3446    5467.8655    4.5539726 
 3795000     17.61322      400    286.65895   -11875.804     17.61322     17.61322     17.61322    -249.3198    2016.7245   -141.10452   -2623.5794    5464.0706    4.5571354 
 3796000     17.62677      400    300.77741   -11876.322     17.62677     17.62677     17.62677    763.38964    3467.6249   -66.398336   -1111.0576    5476.6907    4.5466343 
 3797000    17.618619      400    316.53089   -11877.205    17.618619    17.618619    17.618619    309.63485    3499.6253    3510.9369   -6081.6577     5469.097    4.5529471 
 3798000    17.630923      400    280.37466   -11876.294    17.630923    17.630923    17.630923    134.79703    5697.9827   -3564.2501   -1729.3415    5480.5627    4.5434221 
 3799000     17.63077      400    305.75035   -11876.479     17.63077     17.63077     17.63077   -367.26897     2757.446   -2245.0988    -1614.154      5480.42    4.5435404 
 3800000    17.633539      400    301.47149   -11876.667    17.633539    17.633539    17.633539   -8.7290726    3138.8325   -4524.7196    1359.6999    5483.0021    4.5414007 
 3800001    17.633503      400    302.10824   -11876.692    17.633503    17.633503    17.633503   -60.189787    3056.5335   -4494.2015    1257.0986    5482.9691     4.541428 
Loop time of 52.361 on 40 procs for 50000 steps with 400 atoms

Performance: 82.504 ns/day, 0.291 hours/ns, 954.908 timesteps/s
98.5% CPU use with 40 MPI tasks x 1 OpenMP threads

MPI task timing breakdown:
Section |  min time  |  avg time  |  max time  |%varavg| %total
---------------------------------------------------------------
Pair    | 8.1499     | 13.212     | 17.837     |  71.2 | 25.23
Bond    | 0.006314   | 0.0073493  | 0.0083644  |   0.5 |  0.01
Kspace  | 2.501      | 7.6936     | 12.417     |  96.3 | 14.69
Neigh   | 0.77855    | 1.0521     | 1.3004     |  12.4 |  2.01
Comm    | 21.229     | 21.775     | 22.392     |   8.3 | 41.59
Output  | 7.4124     | 7.4125     | 7.413      |   0.0 | 14.16
Modify  | 0.90455    | 0.95057    | 1.0077     |   2.9 |  1.82
Other   |            | 0.2575     |            |       |  0.49

Nlocal:    10 ave 14 max 7 min
Histogram: 5 2 9 0 9 7 0 4 3 1
Nghost:    3945.4 ave 4007 max 3900 min
Histogram: 3 5 6 7 5 6 2 2 1 3
Neighs:    6491.2 ave 9431 max 3896 min
Histogram: 3 4 3 4 6 8 6 2 3 1

Total # of neighbors = 259648
Ave neighs/atom = 649.12
Ave special neighs/atom = 0
Neighbor list builds = 5000
Dangerous builds = 5000
Total wall time: 1:00:14
