Comment 

          400 atoms
           0  bonds
           0 angles
           0 dihedrals
           0 impropers
 
           2 atom types
           0 bond types
           0 angle types
           0 dihedral types
           0 improper types

           0.0 18.370312 xlo xhi
           0.0 18.370312 ylo yhi
           0.0 18.370312 zlo zhi

Masses

           1    69.723 # Ga
           2    15.999 # O core

           
Atoms  

1	1	1	3		10.0073	11.6513	3.58695
2	2	1	3		12.3895	1.21532	18.2699
3	3	1	3		18.1267	2.17077	3.01721
4	4	1	3		8.15151	7.03646	12.8366
5	5	1	3		6.36881	9.99234	6.21168
6	6	1	3		3.33874	1.01855	13.3671
7	7	1	3		6.4333	0.764793	17.5312
8	8	1	3		12.516	2.7471	13.652
9	9	1	3		11.1061	8.49415	7.47123
10	10	1	3		15.8476	18.1042	0.240233
11	11	1	3		15.9602	10.182	15.3156
12	12	1	3		0.773032	14.875	16.9366
13	13	1	3		1.39659	13.7803	6.66682
14	14	1	3		5.98168	4.86057	2.11882
15	15	1	3		10.9781	18.2407	10.1791
16	16	1	3		8.99395	15.027	7.68796
17	17	1	3		2.80794	13.7221	1.28493
18	18	1	3		8.76888	2.52064	9.65313
19	19	1	3		16.8954	1.05587	15.9061
20	20	1	3		2.12584	10.4748	10.8711
21	21	1	3		17.5296	5.26533	1.72115
22	22	1	3		7.45214	4.39155	17.5563
23	23	1	3		1.91101	18.0433	2.76216
24	24	1	3		7.02831	12.3916	15.8889
25	25	1	3		12.4769	10.2758	1.74592
26	26	1	3		11.7038	2.32181	7.76093
27	27	1	3		5.91011	12.044	12.7619
28	28	1	3		16.8184	8.15301	13.0283
29	29	1	3		5.02992	0.373371	6.41149
30	30	1	3		1.54808	7.79034	13.0783
31	31	1	3		1.05204	17.5401	8.43806
32	32	1	3		16.639	14.2197	8.21696
33	33	1	3		2.05332	1.84169	16.6079
34	34	1	3		10.7836	8.49889	10.6603
35	35	1	3		4.65716	0.64426	9.85369
36	36	1	3		1.63171	4.54799	8.74514
37	37	1	3		4.51376	13.1436	4.26395
38	38	1	3		10.5418	11.2532	12.8031
39	39	1	3		18.3901	12.0786	16.4662
40	40	1	3		2.95757	5.87817	11.1507
41	41	1	3		16.1331	13.0481	17.6118
42	42	1	3		17.4006	15.9785	1.77151
43	43	1	3		12.3856	17.4391	15.6852
44	44	1	3		15.4903	5.59921	7.47948
45	45	1	3		6.80821	13.1647	6.63178
46	46	1	3		5.84115	7.20944	4.22955
47	47	1	3		9.60148	9.20901	15.0621
48	48	1	3		14.7905	1.83685	11.8676
49	49	1	3		12.7565	14.8641	5.85411
50	50	1	3		10.522	12.6529	16.8347
51	51	1	3		8.57529	4.67278	3.27557
52	52	1	3		6.17831	13.5951	10.0117
53	53	1	3		2.78905	17.2987	15.9154
54	54	1	3		4.28747	3.78987	15.1344
55	55	1	3		7.44967	2.07383	15.3103
56	56	1	3		10.1129	14.0094	1.611
57	57	1	3		10.6331	5.19375	7.10622
58	58	1	3		6.69824	4.89099	9.57174
59	59	1	3		17.9248	15.3831	11.4956
60	60	1	3		15.5151	10.8882	1.76747
61	61	1	3		16.5883	17.9043	12.7121
62	62	1	3		0.636762	5.38147	15.7368
63	63	1	3		14.6409	12.2268	7.86929
64	64	1	3		14.4875	2.68928	9.2246
65	65	1	3		8.57702	1.5143	0.897281
66	66	1	3		5.07688	16.8189	4.02421
67	67	1	3		5.10309	4.1597	4.7656
68	68	1	3		17.0146	15.0766	5.43362
69	69	1	3		9.51431	8.70572	2.60074
70	70	1	3		8.85534	10.2	17.9158
71	71	1	3		13.181	4.74074	0.616659
72	72	1	3		4.86011	14.8599	17.6912
73	73	1	3		3.64758	7.3138	15.015
74	74	1	3		9.78828	5.42057	10.2735
75	75	1	3		15.6824	7.41889	1.07292
76	76	1	3		14.9315	16.0873	16.2975
77	77	1	3		4.59042	6.00089	7.23396
78	78	1	3		13.6187	10.318	12.0892
79	79	1	3		2.65123	5.2788	2.95577
80	80	1	3		4.21163	9.45263	1.92865
81	81	1	3		4.58326	9.13531	12.2141
82	82	1	3		2.86669	7.9949	5.13975
83	83	1	3		12.8188	18.3507	6.09613
84	84	1	3		12.5642	13.6751	12.0747
85	85	1	3		3.2674	11.2504	6.29184
86	86	1	3		17.7637	13.0566	1.9608
87	87	1	3		9.98351	6.27338	15.629
88	88	1	3		1.69793	2.53467	5.45242
89	89	1	3		6.49738	1.33182	3.81179
90	90	1	3		15.2583	17.1836	7.12029
91	91	1	3		12.2898	15.3388	9.04541
92	92	1	3		13.158	7.42411	18.2704
93	93	1	3		0.850124	7.46175	17.9063
94	94	1	3		7.13526	8.1174	9.81812
95	95	1	3		2.38732	10.6338	18.3963
96	96	1	3		10.8755	3.30097	1.10371
97	97	1	3		11.0012	16.3873	12.9636
98	98	1	3		10.6603	18.3347	2.69767
99	99	1	3		14.8816	5.46926	4.16463
100	100	1	3		6.67267	2.561	7.3298
101	101	1	3		15.4362	9.36927	7.59463
102	102	1	3		15.4566	0.801512	4.68725
103	103	1	3		17.4106	14.7888	14.5903
104	104	1	3		8.74171	4.18638	12.4414
105	105	1	3		17.1204	10.2298	10.5469
106	106	1	3		14.3307	17.7241	10.0975
107	107	1	3		0.766972	4.57569	12.7367
108	108	1	3		3.80152	2.72356	7.82849
109	109	1	3		16.0768	4.83229	10.8957
110	110	1	3		6.61792	9.01733	14.8614
111	111	1	3		0.532339	8.97324	15.4433
112	112	1	3		17.8547	8.11223	6.73321
113	113	1	3		9.43819	14.0988	11.227
114	114	1	3		15.6306	13.0959	11.3516
115	115	1	3		5.06352	10.3268	9.17899
116	116	1	3		2.42328	4.57593	18.2229
117	117	1	3		4.94574	7.24568	17.4104
118	118	1	3		12.2548	11.4171	6.35613
119	119	1	3		9.67204	0.957717	13.9178
120	120	1	3		6.45513	14.2559	2.08503
121	121	1	3		10.7329	2.93834	4.33717
122	122	1	3		17.8873	2.24357	7.64732
123	123	1	3		6.39225	17.6267	14.3374
124	124	1	3		17.4436	2.36738	10.6841
125	125	1	3		4.20998	17.7565	0.894818
126	126	1	3		5.57004	5.93754	12.9121
127	127	1	3		16.9237	11.5969	5.09298
128	128	1	3		7.8948	17.7781	6.40115
129	129	1	3		14.4276	15.7702	12.9377
130	130	1	3		4.96171	16.026	7.59062
131	131	1	3		14.8799	16.3621	3.05694
132	132	1	3		3.74689	3.13163	11.096
133	133	1	3		16.1837	6.64514	15.193
134	134	1	3		3.46803	13.7712	11.8769
135	135	1	3		17.65	7.49656	10.0009
136	136	1	3		11.6393	5.93969	2.65884
137	137	1	3		12.9403	1.86229	2.67721
138	138	1	3		12.9493	11.0869	15.1791
139	139	1	3		15.4859	2.35608	1.6626
140	140	1	3		5.77108	11.6616	0.206863
141	141	1	3		11.6793	5.71934	12.5756
142	142	1	3		5.16242	14.3389	14.571
143	143	1	3		15.688	3.9066	17.313
144	144	1	3		13.3601	4.77452	15.351
145	145	1	3		0.67243	0.173554	18.3285
146	146	1	3		8.33615	11.626	8.31019
147	147	1	3		7.17704	1.06681	12.1824
148	148	1	3		0.475426	12.6856	9.76389
149	149	1	3		11.58	11.9986	9.04784
150	150	1	3		2.953	16.6126	10.6287
151	151	1	3		2.24525	16.55	5.68864
152	152	1	3		1.55121	10.9873	3.65311
153	153	1	3		10.5917	3.26672	15.986
154	154	1	3		1.21942	0.389922	11.2027
155	155	1	3		12.7815	7.83994	15.117
156	156	1	3		6.86823	10.9769	3.36517
157	157	1	3		14.2101	12.9245	3.72841
158	158	1	3		8.04481	17.0831	1.9972
159	159	1	3		0.412596	5.40955	5.08278
160	160	1	3		18.2894	18.3809	5.82379
161	1	2	-2		1.73945	12.4355	2.13536
162	2	2	-2		12.5323	3.16715	15.258
163	3	2	-2		7.56198	1.38149	10.4053
164	4	2	-2		16.3306	0.555449	14.4787
165	5	2	-2		5.76977	14.6893	8.30361
166	6	2	-2		5.63972	13.8103	16.162
167	7	2	-2		3.50754	2.55435	14.6659
168	8	2	-2		12.4752	3.00296	1.37654
169	9	2	-2		3.29109	4.29475	8.34468
170	10	2	-2		0.943758	6.48347	12.464
171	11	2	-2		9.83314	5.92896	12.962
172	12	2	-2		10.5207	12.8235	2.50135
173	13	2	-2		3.65553	7.47921	6.56046
174	14	2	-2		6.15481	11.3653	4.76069
175	15	2	-2		2.20593	1.13092	12.2946
176	16	2	-2		5.71966	13.9976	5.48615
177	17	2	-2		14.722	10.8589	7.14022
178	18	2	-2		1.74738	15.8223	16.115
179	19	2	-2		7.24526	3.29961	8.74059
180	20	2	-2		17.8467	14.6058	2.54981
181	21	2	-2		0.201171	7.12499	16.2213
182	22	2	-2		13.164	5.59	3.09714
183	23	2	-2		3.77279	10.1721	10.2254
184	24	2	-2		3.00619	15.0376	6.41778
185	25	2	-2		16.2035	5.72288	2.85585
186	26	2	-2		2.63493	4.16243	11.5474
187	27	2	-2		2.5342	9.74899	1.79201
188	28	2	-2		17.6895	17.2516	12.2164
189	29	2	-2		12.9305	9.60169	13.9071
190	30	2	-2		8.22845	7.83649	14.9762
191	31	2	-2		4.67314	10.5993	7.12894
192	32	2	-2		12.6024	15.2809	13.0216
193	33	2	-2		7.41045	11.6568	6.81181
194	34	2	-2		14.4954	6.63191	0.444933
195	35	2	-2		10.7443	6.76734	6.93359
196	36	2	-2		13.9231	4.32621	17.2103
197	37	2	-2		0.329187	1.2843	9.95423
198	38	2	-2		0.200325	7.02889	5.7271
199	39	2	-2		5.32257	0.110936	13.2452
200	40	2	-2		2.05091	11.9712	7.09524
201	41	2	-2		18.2957	14.6081	13.2227
202	42	2	-2		9.59174	17.3821	2.92525
203	43	2	-2		9.8189	11.8397	9.00746
204	44	2	-2		7.31617	2.18525	17.8483
205	45	2	-2		5.98784	3.4741	15.6408
206	46	2	-2		7.64224	6.32013	9.98339
207	47	2	-2		11.0114	2.85869	17.7198
208	48	2	-2		6.65588	13.2974	14.2389
209	49	2	-2		2.63924	18.1066	14.6817
210	50	2	-2		7.2921	9.04611	8.2438
211	51	2	-2		6.93517	5.49528	3.10432
212	52	2	-2		15.8509	15.6211	13.918
213	53	2	-2		15.3223	7.2751	7.56327
214	54	2	-2		12.9973	7.8124	16.6293
215	55	2	-2		4.5526	4.78394	11.7564
216	56	2	-2		17.4622	6.83773	0.800332
217	57	2	-2		1.57368	0.582384	1.26159
218	58	2	-2		14.2097	14.7226	3.07014
219	59	2	-2		11.7147	11.8001	15.9056
220	60	2	-2		2.27022	9.66603	4.87117
221	61	2	-2		17.5628	17.7948	17.6165
222	62	2	-2		11.167	17.2157	14.3157
223	63	2	-2		6.00907	2.90803	3.635
224	64	2	-2		8.77827	12.3157	17.0078
225	65	2	-2		0.245318	1.80591	6.08612
226	66	2	-2		1.62444	16.8283	7.30316
227	67	2	-2		1.38112	8.89824	17.4045
228	68	2	-2		6.05018	13.5329	0.370505
229	69	2	-2		3.01606	12.2192	4.82977
230	70	2	-2		5.24067	0.453677	0.0673905
231	71	2	-2		10.0636	4.78076	8.63264
232	72	2	-2		14.6216	14.0928	12.0697
233	73	2	-2		0.450081	4.45536	14.234
234	74	2	-2		18.1351	13.9714	15.8737
235	75	2	-2		8.10915	18.2888	0.418854
236	76	2	-2		18.0794	3.89463	10.9189
237	77	2	-2		17.3447	12.0912	10.9605
238	78	2	-2		15.5193	5.40365	5.68548
239	79	2	-2		8.62783	3.9913	1.35399
240	80	2	-2		13.4466	16.2493	15.3644
241	1	2	-2		9.03025	16.7594	6.977
242	2	2	-2		12.5431	16.9018	10.0238
243	3	2	-2		4.07381	15.5233	11.5405
244	4	2	-2		5.4707	0.40408	4.64741
245	5	2	-2		16.1737	15.7032	4.3478
246	6	2	-2		2.3455	5.21627	1.38172
247	7	2	-2		15.1324	17.2469	11.8504
248	8	2	-2		16.3825	12.4191	1.00172
249	9	2	-2		12.9589	6.51801	14.2416
250	10	2	-2		2.04328	6.11137	9.6149
251	11	2	-2		9.86508	6.63673	3.16507
252	12	2	-2		3.86779	7.46514	13.0007
253	13	2	-2		12.6331	11.9979	7.86777
254	14	2	-2		10.719	13.779	18.0478
255	15	2	-2		12.2346	12.3278	13.3262
256	16	2	-2		11.6185	1.42651	4.07482
257	17	2	-2		4.52628	8.04902	3.52589
258	18	2	-2		9.22928	3.65008	4.27253
259	19	2	-2		16.6273	17.7823	5.88082
260	20	2	-2		9.55078	2.1977	15.1457
261	21	2	-2		10.3466	1.47118	9.21614
262	22	2	-2		7.83469	13.6929	10.4111
263	23	2	-2		18.096	14.3653	18.3771
264	24	2	-2		5.20845	10.4349	13.0689
265	25	2	-2		3.09438	2.12394	6.56713
266	26	2	-2		10.0666	14.8324	8.75116
267	27	2	-2		11.8952	9.75992	7.03617
268	28	2	-2		15.5547	11.8219	3.71783
269	29	2	-2		12.9269	2.69076	8.57538
270	30	2	-2		11.9154	10.325	11.4307
271	31	2	-2		14.9858	17.3969	17.2983
272	32	2	-2		7.1769	10.5394	15.26
273	33	2	-2		1.43243	17.3869	4.69116
274	34	2	-2		15.2463	13.4788	8.9939
275	35	2	-2		5.90542	11.8332	9.48183
276	36	2	-2		8.08505	2.98685	13.1577
277	37	2	-2		14.7865	17.2998	8.44562
278	38	2	-2		17.0737	14.5806	10.4109
279	39	2	-2		6.32363	16.1499	2.84464
280	40	2	-2		2.9452	14.5052	18.1238
281	41	2	-2		16.7721	1.68961	4.42759
282	42	2	-2		14.4824	2.14167	3.19738
283	43	2	-2		5.2963	12.836	11.6241
284	44	2	-2		12.2858	13.8728	9.83113
285	45	2	-2		0.685378	4.04195	7.62706
286	46	2	-2		6.45023	17.2175	6.71261
287	47	2	-2		17.5685	8.69457	11.1674
288	48	2	-2		8.137	0.411224	13.6137
289	49	2	-2		4.4831	16.3982	18.2464
290	50	2	-2		9.07408	7.73126	11.1649
291	51	2	-2		1.45767	1.79754	3.86264
292	52	2	-2		3.82427	13.7802	13.5714
293	53	2	-2		11.8019	5.31578	0.757633
294	54	2	-2		11.4339	3.92135	3.15881
295	55	2	-2		4.70931	8.14419	15.4783
296	56	2	-2		8.58859	14.9644	1.64176
297	57	2	-2		18.2916	11.7157	3.88984
298	58	2	-2		15.542	9.4415	12.6758
299	59	2	-2		7.72995	0.668942	2.72826
300	60	2	-2		9.70315	9.91217	13.4552
301	61	2	-2		1.26144	11.6419	17.5022
302	62	2	-2		16.1368	8.35059	15.356
303	63	2	-2		13.104	16.8271	5.74582
304	64	2	-2		4.36139	4.68078	3.30509
305	65	2	-2		7.06962	0.476479	15.5915
306	66	2	-2		5.58522	8.9626	10.5287
307	67	2	-2		15.3619	8.92827	1.38769
308	68	2	-2		4.08992	5.41654	14.3143
309	69	2	-2		17.9811	7.62159	8.48575
310	70	2	-2		2.17875	13.0186	11.093
311	71	2	-2		15.2077	4.13357	0.653161
312	72	2	-2		14.7226	17.8635	3.77926
313	73	2	-2		1.10567	16.7039	10.1401
314	74	2	-2		11.1958	6.27226	10.8978
315	75	2	-2		13.4065	13.2489	5.12423
316	76	2	-2		13.9037	10.9983	1.80117
317	77	2	-2		14.3389	10.5089	15.689
318	78	2	-2		16.266	15.393	7.21189
319	79	2	-2		2.29363	18.3354	17.3464
320	80	2	-2		16.0812	2.31332	16.5853
321	81	2	-2		11.1124	11.783	5.19183
322	82	2	-2		0.275223	13.7904	8.39568
323	83	2	-2		15.1041	3.30172	11.0935
324	84	2	-2		4.00185	11.6615	0.199227
325	85	2	-2		10.0628	12.5493	11.558
326	86	2	-2		18.3542	4.12884	2.66744
327	87	2	-2		2.36721	8.99678	12.1207
328	88	2	-2		16.6447	12.6845	6.63742
329	89	2	-2		17.1613	1.98299	1.51958
330	90	2	-2		6.40006	7.62744	13.2683
331	91	2	-2		12.5145	4.399	12.9041
332	92	2	-2		16.5207	11.96	16.5601
333	93	2	-2		4.34365	17.1237	8.72516
334	94	2	-2		13.4814	1.59835	13.0066
335	95	2	-2		9.54437	4.02946	10.8496
336	96	2	-2		8.27732	5.09646	16.3567
337	97	2	-2		10.7062	4.866	15.8435
338	98	2	-2		7.08035	12.4566	2.62705
339	99	2	-2		12.5735	8.35353	1.50102
340	100	2	-2		0.375198	17.1638	2.19535
341	101	2	-2		15.086	4.3707	8.43664
342	102	2	-2		0.368798	14.5381	5.75613
343	103	2	-2		14.3184	1.00905	1.06168
344	104	2	-2		10.414	17.9755	11.4838
345	105	2	-2		15.9589	9.6652	9.26495
346	106	2	-2		0.579012	10.7433	9.77932
347	107	2	-2		8.35169	13.6138	7.31726
348	108	2	-2		16.7385	9.59765	6.18975
349	109	2	-2		5.96597	10.1771	1.88986
350	110	2	-2		0.826993	5.08989	17.5778
351	111	2	-2		5.57926	1.14607	7.86314
352	112	2	-2		11.0361	3.78089	6.3588
353	113	2	-2		9.89601	1.87709	1.68395
354	114	2	-2		2.03416	7.41702	14.965
355	115	2	-2		2.59398	3.56495	16.9579
356	116	2	-2		4.91484	1.63685	11.3162
357	117	2	-2		7.52494	0.981791	5.99039
358	118	2	-2		10.9028	10.0687	2.35028
359	119	2	-2		16.833	2.44652	8.95966
360	120	2	-2		16.4845	1.2904	11.7854
361	121	2	-2		15.9746	5.06917	15.8739
362	122	2	-2		3.69736	6.1079	16.9697
363	123	2	-2		0.389954	1.47893	16.5864
364	124	2	-2		2.3814	6.54629	3.91099
365	125	2	-2		4.35384	13.97	2.87849
366	126	2	-2		15.9352	16.6193	1.54319
367	127	2	-2		10.801	7.71573	15.3054
368	128	2	-2		5.51427	5.82473	5.54277
369	129	2	-2		15.5047	14.3755	16.9403
370	130	2	-2		6.43344	8.65162	4.9513
371	131	2	-2		12.2277	0.096269	16.8192
372	132	2	-2		16.3534	6.32911	10.6979
373	133	2	-2		7.31531	5.27828	12.4088
374	134	2	-2		18.3015	8.59742	13.7017
375	135	2	-2		5.76053	16.536	15.3113
376	136	2	-2		3.73252	17.4645	2.57125
377	137	2	-2		8.73349	10.325	3.61227
378	138	2	-2		4.41645	8.58548	0.127653
379	139	2	-2		6.17132	5.04906	0.282295
380	140	2	-2		14.1885	11.8872	11.4993
381	141	2	-2		5.75271	5.64301	8.65537
382	142	2	-2		11.6983	0.810337	7.07573
383	143	2	-2		16.2821	6.39524	13.7117
384	144	2	-2		9.91559	9.79818	16.6011
385	145	2	-2		12.0488	0.145763	1.68693
386	146	2	-2		10.3619	8.7564	8.99133
387	147	2	-2		17.971	10.569	15.396
388	148	2	-2		9.61713	15.2341	12.5983
389	149	2	-2		0.356588	0.24993	7.64962
390	150	2	-2		1.43346	4.25494	4.88721
391	151	2	-2		3.86122	2.24696	9.40502
392	152	2	-2		14.4097	0.797981	6.29418
393	153	2	-2		12.4535	15.2005	7.38335
394	154	2	-2		14.6217	1.03526	10.3052
395	155	2	-2		5.41248	3.27277	6.46564
396	156	2	-2		4.35078	17.4178	5.74623
397	157	2	-2		10.4698	2.18164	13.2638
398	158	2	-2		8.88052	9.37416	1.06194
399	159	2	-2		3.0208	18.3042	10.4459
400	160	2	-2		6.91019	10.8963	17.8021

