400
Atoms. Timestep: 0
Ga 10.0073 11.6513 3.58695
Ga 12.3895 1.21532 18.2699
Ga 18.1267 2.17077 3.01721
Ga 8.15151 7.03646 12.8366
Ga 6.36881 9.99234 6.21168
Ga 3.33874 1.01855 13.3671
Ga 6.4333 0.764793 17.5312
Ga 12.516 2.7471 13.652
Ga 11.1061 8.49415 7.47123
Ga 15.8476 18.1042 0.240233
Ga 15.9602 10.182 15.3156
Ga 0.773032 14.875 16.9366
Ga 1.39659 13.7803 6.66682
Ga 5.98168 4.86057 2.11882
Ga 10.9781 18.2407 10.1791
Ga 8.99395 15.027 7.68796
Ga 2.80794 13.7221 1.28493
Ga 8.76888 2.52064 9.65313
Ga 16.8954 1.05587 15.9061
Ga 2.12584 10.4748 10.8711
Ga 17.5296 5.26533 1.72115
Ga 7.45214 4.39155 17.5563
Ga 1.91101 18.0433 2.76216
Ga 7.02831 12.3916 15.8889
Ga 12.4769 10.2758 1.74592
Ga 11.7038 2.32181 7.76093
Ga 5.91011 12.044 12.7619
Ga 16.8184 8.15301 13.0283
Ga 5.02992 0.373371 6.41149
Ga 1.54808 7.79034 13.0783
Ga 1.05204 17.5401 8.43806
Ga 16.639 14.2197 8.21696
Ga 2.05332 1.84169 16.6079
Ga 10.7836 8.49889 10.6603
Ga 4.65716 0.64426 9.85369
Ga 1.63171 4.54799 8.74514
Ga 4.51376 13.1436 4.26395
Ga 10.5418 11.2532 12.8031
Ga 0.019788 12.0786 16.4662
Ga 2.95757 5.87817 11.1507
Ga 16.1331 13.0481 17.6118
Ga 17.4006 15.9785 1.77151
Ga 12.3856 17.4391 15.6852
Ga 15.4903 5.59921 7.47948
Ga 6.80821 13.1647 6.63178
Ga 5.84115 7.20944 4.22955
Ga 9.60148 9.20901 15.0621
Ga 14.7905 1.83685 11.8676
Ga 12.7565 14.8641 5.85411
Ga 10.522 12.6529 16.8347
Ga 8.57529 4.67278 3.27557
Ga 6.17831 13.5951 10.0117
Ga 2.78905 17.2987 15.9154
Ga 4.28747 3.78987 15.1344
Ga 7.44967 2.07383 15.3103
Ga 10.1129 14.0094 1.611
Ga 10.6331 5.19375 7.10622
Ga 6.69824 4.89099 9.57174
Ga 17.9248 15.3831 11.4956
Ga 15.5151 10.8882 1.76747
Ga 16.5883 17.9043 12.7121
Ga 0.636762 5.38147 15.7368
Ga 14.6409 12.2268 7.86929
Ga 14.4875 2.68928 9.2246
Ga 8.57702 1.5143 0.897281
Ga 5.07688 16.8189 4.02421
Ga 5.10309 4.1597 4.7656
Ga 17.0146 15.0766 5.43362
Ga 9.51431 8.70572 2.60074
Ga 8.85534 10.2 17.9158
Ga 13.181 4.74074 0.616659
Ga 4.86011 14.8599 17.6912
Ga 3.64758 7.3138 15.015
Ga 9.78828 5.42057 10.2735
Ga 15.6824 7.41889 1.07292
Ga 14.9315 16.0873 16.2975
Ga 4.59042 6.00089 7.23396
Ga 13.6187 10.318 12.0892
Ga 2.65123 5.2788 2.95577
Ga 4.21163 9.45263 1.92865
Ga 4.58326 9.13531 12.2141
Ga 2.86669 7.9949 5.13975
Ga 12.8188 18.3507 6.09613
Ga 12.5642 13.6751 12.0747
Ga 3.2674 11.2504 6.29184
Ga 17.7637 13.0566 1.9608
Ga 9.98351 6.27338 15.629
Ga 1.69793 2.53467 5.45242
Ga 6.49738 1.33182 3.81179
Ga 15.2583 17.1836 7.12029
Ga 12.2898 15.3388 9.04541
Ga 13.158 7.42411 18.2704
Ga 0.850124 7.46175 17.9063
Ga 7.13526 8.1174 9.81812
Ga 2.38732 10.6338 0.025988
Ga 10.8755 3.30097 1.10371
Ga 11.0012 16.3873 12.9636
Ga 10.6603 18.3347 2.69767
Ga 14.8816 5.46926 4.16463
Ga 6.67267 2.561 7.3298
Ga 15.4362 9.36927 7.59463
Ga 15.4566 0.801512 4.68725
Ga 17.4106 14.7888 14.5903
Ga 8.74171 4.18638 12.4414
Ga 17.1204 10.2298 10.5469
Ga 14.3307 17.7241 10.0975
Ga 0.766972 4.57569 12.7367
Ga 3.80152 2.72356 7.82849
Ga 16.0768 4.83229 10.8957
Ga 6.61792 9.01733 14.8614
Ga 0.532339 8.97324 15.4433
Ga 17.8547 8.11223 6.73321
Ga 9.43819 14.0988 11.227
Ga 15.6306 13.0959 11.3516
Ga 5.06352 10.3268 9.17899
Ga 2.42328 4.57593 18.2229
Ga 4.94574 7.24568 17.4104
Ga 12.2548 11.4171 6.35613
Ga 9.67204 0.957717 13.9178
Ga 6.45513 14.2559 2.08503
Ga 10.7329 2.93834 4.33717
Ga 17.8873 2.24357 7.64732
Ga 6.39225 17.6267 14.3374
Ga 17.4436 2.36738 10.6841
Ga 4.20998 17.7565 0.894818
Ga 5.57004 5.93754 12.9121
Ga 16.9237 11.5969 5.09298
Ga 7.8948 17.7781 6.40115
Ga 14.4276 15.7702 12.9377
Ga 4.96171 16.026 7.59062
Ga 14.8799 16.3621 3.05694
Ga 3.74689 3.13163 11.096
Ga 16.1837 6.64514 15.193
Ga 3.46803 13.7712 11.8769
Ga 17.65 7.49656 10.0009
Ga 11.6393 5.93969 2.65884
Ga 12.9403 1.86229 2.67721
Ga 12.9493 11.0869 15.1791
Ga 15.4859 2.35608 1.6626
Ga 5.77108 11.6616 0.206863
Ga 11.6793 5.71934 12.5756
Ga 5.16242 14.3389 14.571
Ga 15.688 3.9066 17.313
Ga 13.3601 4.77452 15.351
Ga 0.67243 0.173554 18.3285
Ga 8.33615 11.626 8.31019
Ga 7.17704 1.06681 12.1824
Ga 0.475426 12.6856 9.76389
Ga 11.58 11.9986 9.04784
Ga 2.953 16.6126 10.6287
Ga 2.24525 16.55 5.68864
Ga 1.55121 10.9873 3.65311
Ga 10.5917 3.26672 15.986
Ga 1.21942 0.389922 11.2027
Ga 12.7815 7.83994 15.117
Ga 6.86823 10.9769 3.36517
Ga 14.2101 12.9245 3.72841
Ga 8.04481 17.0831 1.9972
Ga 0.412596 5.40955 5.08278
Ga 18.2894 0.010588 5.82379
O 1.73945 12.4355 2.13536
O 12.5323 3.16715 15.258
O 7.56198 1.38149 10.4053
O 16.3306 0.555449 14.4787
O 5.76977 14.6893 8.30361
O 5.63972 13.8103 16.162
O 3.50754 2.55435 14.6659
O 12.4752 3.00296 1.37654
O 3.29109 4.29475 8.34468
O 0.943758 6.48347 12.464
O 9.83314 5.92896 12.962
O 10.5207 12.8235 2.50135
O 3.65553 7.47921 6.56046
O 6.15481 11.3653 4.76069
O 2.20593 1.13092 12.2946
O 5.71966 13.9976 5.48615
O 14.722 10.8589 7.14022
O 1.74738 15.8223 16.115
O 7.24526 3.29961 8.74059
O 17.8467 14.6058 2.54981
O 0.201171 7.12499 16.2213
O 13.164 5.59 3.09714
O 3.77279 10.1721 10.2254
O 3.00619 15.0376 6.41778
O 16.2035 5.72288 2.85585
O 2.63493 4.16243 11.5474
O 2.5342 9.74899 1.79201
O 17.6895 17.2516 12.2164
O 12.9305 9.60169 13.9071
O 8.22845 7.83649 14.9762
O 4.67314 10.5993 7.12894
O 12.6024 15.2809 13.0216
O 7.41045 11.6568 6.81181
O 14.4954 6.63191 0.444933
O 10.7443 6.76734 6.93359
O 13.9231 4.32621 17.2103
O 0.329187 1.2843 9.95423
O 0.200325 7.02889 5.7271
O 5.32257 0.110936 13.2452
O 2.05091 11.9712 7.09524
O 18.2957 14.6081 13.2227
O 9.59174 17.3821 2.92525
O 9.8189 11.8397 9.00746
O 7.31617 2.18525 17.8483
O 5.98784 3.4741 15.6408
O 7.64224 6.32013 9.98339
O 11.0114 2.85869 17.7198
O 6.65588 13.2974 14.2389
O 2.63924 18.1066 14.6817
O 7.2921 9.04611 8.2438
O 6.93517 5.49528 3.10432
O 15.8509 15.6211 13.918
O 15.3223 7.2751 7.56327
O 12.9973 7.8124 16.6293
O 4.5526 4.78394 11.7564
O 17.4622 6.83773 0.800332
O 1.57368 0.582384 1.26159
O 14.2097 14.7226 3.07014
O 11.7147 11.8001 15.9056
O 2.27022 9.66603 4.87117
O 17.5628 17.7948 17.6165
O 11.167 17.2157 14.3157
O 6.00907 2.90803 3.635
O 8.77827 12.3157 17.0078
O 0.245318 1.80591 6.08612
O 1.62444 16.8283 7.30316
O 1.38112 8.89824 17.4045
O 6.05018 13.5329 0.370505
O 3.01606 12.2192 4.82977
O 5.24067 0.453677 0.0673905
O 10.0636 4.78076 8.63264
O 14.6216 14.0928 12.0697
O 0.450081 4.45536 14.234
O 18.1351 13.9714 15.8737
O 8.10915 18.2888 0.418854
O 18.0794 3.89463 10.9189
O 17.3447 12.0912 10.9605
O 15.5193 5.40365 5.68548
O 8.62783 3.9913 1.35399
O 13.4466 16.2493 15.3644
O 9.03025 16.7594 6.977
O 12.5431 16.9018 10.0238
O 4.07381 15.5233 11.5405
O 5.4707 0.40408 4.64741
O 16.1737 15.7032 4.3478
O 2.3455 5.21627 1.38172
O 15.1324 17.2469 11.8504
O 16.3825 12.4191 1.00172
O 12.9589 6.51801 14.2416
O 2.04328 6.11137 9.6149
O 9.86508 6.63673 3.16507
O 3.86779 7.46514 13.0007
O 12.6331 11.9979 7.86777
O 10.719 13.779 18.0478
O 12.2346 12.3278 13.3262
O 11.6185 1.42651 4.07482
O 4.52628 8.04902 3.52589
O 9.22928 3.65008 4.27253
O 16.6273 17.7823 5.88082
O 9.55078 2.1977 15.1457
O 10.3466 1.47118 9.21614
O 7.83469 13.6929 10.4111
O 18.096 14.3653 0.006788
O 5.20845 10.4349 13.0689
O 3.09438 2.12394 6.56713
O 10.0666 14.8324 8.75116
O 11.8952 9.75992 7.03617
O 15.5547 11.8219 3.71783
O 12.9269 2.69076 8.57538
O 11.9154 10.325 11.4307
O 14.9858 17.3969 17.2983
O 7.1769 10.5394 15.26
O 1.43243 17.3869 4.69116
O 15.2463 13.4788 8.9939
O 5.90542 11.8332 9.48183
O 8.08505 2.98685 13.1577
O 14.7865 17.2998 8.44562
O 17.0737 14.5806 10.4109
O 6.32363 16.1499 2.84464
O 2.9452 14.5052 18.1238
O 16.7721 1.68961 4.42759
O 14.4824 2.14167 3.19738
O 5.2963 12.836 11.6241
O 12.2858 13.8728 9.83113
O 0.685378 4.04195 7.62706
O 6.45023 17.2175 6.71261
O 17.5685 8.69457 11.1674
O 8.137 0.411224 13.6137
O 4.4831 16.3982 18.2464
O 9.07408 7.73126 11.1649
O 1.45767 1.79754 3.86264
O 3.82427 13.7802 13.5714
O 11.8019 5.31578 0.757633
O 11.4339 3.92135 3.15881
O 4.70931 8.14419 15.4783
O 8.58859 14.9644 1.64176
O 18.2916 11.7157 3.88984
O 15.542 9.4415 12.6758
O 7.72995 0.668942 2.72826
O 9.70315 9.91217 13.4552
O 1.26144 11.6419 17.5022
O 16.1368 8.35059 15.356
O 13.104 16.8271 5.74582
O 4.36139 4.68078 3.30509
O 7.06962 0.476479 15.5915
O 5.58522 8.9626 10.5287
O 15.3619 8.92827 1.38769
O 4.08992 5.41654 14.3143
O 17.9811 7.62159 8.48575
O 2.17875 13.0186 11.093
O 15.2077 4.13357 0.653161
O 14.7226 17.8635 3.77926
O 1.10567 16.7039 10.1401
O 11.1958 6.27226 10.8978
O 13.4065 13.2489 5.12423
O 13.9037 10.9983 1.80117
O 14.3389 10.5089 15.689
O 16.266 15.393 7.21189
O 2.29363 18.3354 17.3464
O 16.0812 2.31332 16.5853
O 11.1124 11.783 5.19183
O 0.275223 13.7904 8.39568
O 15.1041 3.30172 11.0935
O 4.00185 11.6615 0.199227
O 10.0628 12.5493 11.558
O 18.3542 4.12884 2.66744
O 2.36721 8.99678 12.1207
O 16.6447 12.6845 6.63742
O 17.1613 1.98299 1.51958
O 6.40006 7.62744 13.2683
O 12.5145 4.399 12.9041
O 16.5207 11.96 16.5601
O 4.34365 17.1237 8.72516
O 13.4814 1.59835 13.0066
O 9.54437 4.02946 10.8496
O 8.27732 5.09646 16.3567
O 10.7062 4.866 15.8435
O 7.08035 12.4566 2.62705
O 12.5735 8.35353 1.50102
O 0.375198 17.1638 2.19535
O 15.086 4.3707 8.43664
O 0.368798 14.5381 5.75613
O 14.3184 1.00905 1.06168
O 10.414 17.9755 11.4838
O 15.9589 9.6652 9.26495
O 0.579012 10.7433 9.77932
O 8.35169 13.6138 7.31726
O 16.7385 9.59765 6.18975
O 5.96597 10.1771 1.88986
O 0.826993 5.08989 17.5778
O 5.57926 1.14607 7.86314
O 11.0361 3.78089 6.3588
O 9.89601 1.87709 1.68395
O 2.03416 7.41702 14.965
O 2.59398 3.56495 16.9579
O 4.91484 1.63685 11.3162
O 7.52494 0.981791 5.99039
O 10.9028 10.0687 2.35028
O 16.833 2.44652 8.95966
O 16.4845 1.2904 11.7854
O 15.9746 5.06917 15.8739
O 3.69736 6.1079 16.9697
O 0.389954 1.47893 16.5864
O 2.3814 6.54629 3.91099
O 4.35384 13.97 2.87849
O 15.9352 16.6193 1.54319
O 10.801 7.71573 15.3054
O 5.51427 5.82473 5.54277
O 15.5047 14.3755 16.9403
O 6.43344 8.65162 4.9513
O 12.2277 0.096269 16.8192
O 16.3534 6.32911 10.6979
O 7.31531 5.27828 12.4088
O 18.3015 8.59742 13.7017
O 5.76053 16.536 15.3113
O 3.73252 17.4645 2.57125
O 8.73349 10.325 3.61227
O 4.41645 8.58548 0.127653
O 6.17132 5.04906 0.282295
O 14.1885 11.8872 11.4993
O 5.75271 5.64301 8.65537
O 11.6983 0.810337 7.07573
O 16.2821 6.39524 13.7117
O 9.91559 9.79818 16.6011
O 12.0488 0.145763 1.68693
O 10.3619 8.7564 8.99133
O 17.971 10.569 15.396
O 9.61713 15.2341 12.5983
O 0.356588 0.24993 7.64962
O 1.43346 4.25494 4.88721
O 3.86122 2.24696 9.40502
O 14.4097 0.797981 6.29418
O 12.4535 15.2005 7.38335
O 14.6217 1.03526 10.3052
O 5.41248 3.27277 6.46564
O 4.35078 17.4178 5.74623
O 10.4698 2.18164 13.2638
O 8.88052 9.37416 1.06194
O 3.0208 18.3042 10.4459
O 6.91019 10.8963 17.8021
400
Atoms. Timestep: 1000
Ga 10.9052 11.427 3.73054
Ga 12.4264 1.7789 17.6315
Ga 17.933 2.81417 4.11372
Ga 6.88473 7.75874 14.902
Ga 5.43731 9.57252 6.53355
Ga 4.26876 0.947732 14.2623
Ga 6.17081 17.7357 16.9455
Ga 12.7657 2.2797 13.9739
Ga 12.5345 6.09836 10.3751
Ga 14.6515 17.8355 1.6915
Ga 14.7622 11.4736 17.3133
Ga 2.66977 14.2162 17.3963
Ga 2.15421 13.5036 6.80386
Ga 5.3286 6.63691 3.47846
Ga 11.5267 17.5928 9.17489
Ga 8.79658 14.7332 8.30228
Ga 4.48229 13.0044 1.96123
Ga 10.2008 2.12446 7.84178
Ga 17.5437 2.89835 15.3081
Ga 2.0814 10.9923 10.9823
Ga 17.3367 4.59571 0.988608
Ga 7.38402 5.08615 17.494
Ga 2.17151 0.865174 2.85534
Ga 8.63941 12.6026 14.914
Ga 12.1326 11.4582 0.861158
Ga 12.5437 1.36251 6.58048
Ga 6.93633 12.3271 12.1228
Ga 15.865 8.74607 12.8977
Ga 4.08502 0.887913 5.21761
Ga 0.816063 7.94423 11.2239
Ga 0.32267 16.7686 9.47159
Ga 15.4317 13.3191 7.6356
Ga 1.40609 2.67951 17.8527
Ga 10.1347 8.61249 10.1995
Ga 6.47595 17.4921 8.98287
Ga 2.39907 5.83844 8.72268
Ga 4.94443 12.2335 5.1701
Ga 10.6509 11.0577 12.8484
Ga 1.67817 11.3997 15.2371
Ga 5.17558 6.88294 10.5072
Ga 17.5979 12.4692 17.9157
Ga 17.0841 15.6554 1.19374
Ga 11.7306 16.8774 16.0105
Ga 16.3275 6.048 6.07863
Ga 6.93203 12.1679 7.90086
Ga 7.60757 7.32718 5.6773
Ga 9.53282 9.5166 15.2816
Ga 15.1495 1.48437 12.1
Ga 11.2613 14.4795 4.55106
Ga 9.5031 13.5414 17.8617
Ga 8.20181 6.01797 2.14967
Ga 6.57389 14.5084 10.3221
Ga 1.10044 16.108 14.5823
Ga 4.36745 3.22506 16.7558
Ga 6.94562 2.06385 16.1468
Ga 8.87532 13.2473 2.77947
Ga 10.3556 5.42521 6.16691
Ga 7.10434 3.78015 10.4329
Ga 17.723 15.6879 12.0206
Ga 17.8637 10.5694 2.55888
Ga 16.7632 17.5229 16.0633
Ga 16.1946 4.69946 13.0412
Ga 13.3235 12.0631 6.08407
Ga 13.3358 4.5507 7.02985
Ga 7.39062 2.71816 1.48801
Ga 7.49151 18.0975 3.27069
Ga 7.53811 4.18023 6.826
Ga 17.9057 14.1606 4.91276
Ga 9.46209 9.52208 0.807681
Ga 7.11367 11.2748 0.240162
Ga 13.7851 6.12102 0.91503
Ga 5.54894 16.4628 1.12541
Ga 3.70279 6.61618 15.7654
Ga 9.76067 4.8137 9.31298
Ga 16.3405 7.64572 1.54622
Ga 14.5753 15.2686 17.4148
Ga 5.16284 5.81968 7.45476
Ga 14.5746 11.4698 12.429
Ga 3.17273 4.44742 3.88933
Ga 5.37787 9.97092 2.68728
Ga 5.2994 8.84964 12.672
Ga 2.69109 7.20647 5.76428
Ga 13.0909 17.0247 4.21472
Ga 12.4169 13.1762 13.0362
Ga 2.1888 9.33264 7.90385
Ga 1.26122 13.4786 2.09869
Ga 9.18525 6.0909 14.5895
Ga 2.5895 3.31516 6.59136
Ga 5.99911 3.19502 4.32146
Ga 15.1029 17.2914 6.8136
Ga 12.7135 15.3465 7.11714
Ga 12.4514 8.37624 17.3272
Ga 18.1558 9.38363 17.8406
Ga 7.92611 7.2711 11.7072
Ga 2.66635 11.1358 18.237
Ga 10.7014 3.84577 0.818834
Ga 10.2053 15.9338 13.261
Ga 11.2868 0.864083 2.16582
Ga 13.8954 6.82486 4.13913
Ga 7.20878 1.27229 6.30507
Ga 14.9337 8.72214 7.04873
Ga 15.2885 1.82111 5.27516
Ga 17.6588 12.7212 13.2618
Ga 7.48424 2.73086 13.4368
Ga 16.8502 10.3945 9.79267
Ga 15.4679 17.0789 10.1655
Ga 1.35004 5.05984 12.132
Ga 5.00677 2.44146 8.23761
Ga 15.3038 4.33438 9.62713
Ga 4.2978 10.0245 15.6198
Ga 18.1913 7.15763 14.7895
Ga 0.612664 9.03208 4.90746
Ga 10.3422 13.6252 10.8365
Ga 15.1845 14.1221 11.8542
Ga 5.1763 10.3639 10.0722
Ga 2.4383 5.48462 0.685738
Ga 3.80699 8.27847 0.825243
Ga 11.5621 9.55359 6.45377
Ga 8.7185 17.2909 10.7326
Ga 6.24919 14.8423 3.2596
Ga 9.53401 2.46627 5.02269
Ga 17.8537 3.29343 8.62691
Ga 7.38536 17.5428 14.1257
Ga 18.0473 1.34007 10.8625
Ga 2.58026 17.0244 0.499326
Ga 4.71078 4.45195 12.5214
Ga 15.9181 10.8057 5.14498
Ga 8.08585 16.0536 5.57066
Ga 14.8667 16.2364 14.3117
Ga 5.35602 15.1696 6.77934
Ga 15.4167 15.4381 4.0271
Ga 2.90687 2.10651 10.9592
Ga 15.3805 7.83379 16.7639
Ga 3.77568 14.0831 12.0884
Ga 17.5597 7.04845 8.62072
Ga 11.1417 7.58281 2.3693
Ga 13.5093 2.8995 2.53569
Ga 11.3974 11.926 15.9165
Ga 15.5415 2.18614 17.7128
Ga 5.70799 12.947 16.6286
Ga 11.3512 4.3627 12.0764
Ga 4.30331 15.3409 14.8318
Ga 13.4522 4.49797 16.1456
Ga 13.0748 6.73593 14.0119
Ga 17.8255 0.240998 1.25226
Ga 7.82065 9.1012 8.54525
Ga 5.80343 1.01683 11.4512
Ga 0.16204 13.4876 9.51358
Ga 10.1485 11.904 7.17142
Ga 3.23379 15.9167 9.3604
Ga 2.4864 16.2123 6.02692
Ga 2.48281 11.436 3.94735
Ga 10.5087 3.49714 15.5617
Ga 2.25413 17.2754 12.0088
Ga 13.2223 10.0024 14.7872
Ga 7.95483 9.88891 3.88202
Ga 14.2236 12.417 2.96322
Ga 8.82427 16.7442 0.782319
Ga 0.614999 5.88079 3.84346
Ga 0.533974 0.612604 7.07217
O 3.05889 12.6478 2.5083
O 11.6413 2.28992 15.1671
O 6.85792 18.0368 10.4741
O 0.223957 17.1473 15.4405
O 7.09637 13.8913 8.7667
O 4.71729 14.3197 16.275
O 5.07415 2.03803 16.0213
O 13.2388 4.32119 1.42323
O 3.72826 4.12157 8.05373
O 1.73817 6.22094 10.573
O 7.74088 6.23192 15.5719
O 10.4589 13.3022 3.76782
O 3.69209 6.36007 6.80913
O 6.84272 9.19141 4.9649
O 4.09081 1.4823 12.3314
O 5.8842 10.994 6.92739
O 12.8723 8.51521 7.12531
O 2.30032 15.1184 15.505
O 8.79735 1.46748 7.02752
O 0.47255 12.666 3.49435
O 17.4951 7.93502 16.2716
O 12.7689 6.91789 3.17482
O 3.01652 10.2511 9.68547
O 5.38789 13.3387 6.70276
O 14.7105 7.26793 2.56118
O 3.01752 4.0005 12.3026
O 1.4034 10.045 3.36237
O 0.730812 16.749 12.942
O 12.6091 11.4874 13.2226
O 8.79275 8.17141 15.1281
O 3.80071 8.87229 6.80898
O 14.0165 14.775 13.4711
O 8.76891 12.3631 7.39917
O 15.7776 7.26262 18.1831
O 12.0001 5.29168 6.69089
O 13.3837 4.43435 14.6563
O 1.71283 0.671432 11.4305
O 17.6452 6.6335 5.27948
O 6.09674 0.920994 13.3844
O 2.80881 12.2362 5.75587
O 18.0526 14.5014 13.2535
O 9.68925 18.1121 1.56412
O 9.46727 9.49136 8.53413
O 6.97389 4.16698 2.3331
O 6.58018 3.90175 16.9081
O 8.39922 5.16649 10.7463
O 11.4639 3.51163 17.4878
O 7.50054 12.8569 13.718
O 3.59318 17.5193 13.9933
O 8.319 8.04223 10.2647
O 9.04872 4.97535 7.67103
O 15.8901 15.8546 16.6147
O 15.6407 7.26826 7.1169
O 12.6086 8.23315 15.1585
O 7.37641 2.54459 11.3743
O 16.9928 6.02915 1.60976
O 1.37403 1.27671 0.26969
O 14.4984 14.0795 3.59171
O 11.1917 12.4361 17.9673
O 1.32271 8.70943 6.41921
O 16.3745 0.816319 16.8415
O 10.8149 16.623 14.5956
O 7.04503 2.99324 5.80865
O 9.65442 12.8403 16.2032
O 1.49475 1.53974 6.19178
O 1.21785 17.217 7.39637
O 1.72888 9.67263 17.9727
O 5.06 14.968 1.72988
O 4.51264 10.7476 4.1387
O 4.86796 17.2321 18.235
O 9.88893 3.24519 9.09816
O 16.0549 12.8122 12.7193
O 18.062 5.3303 12.9552
O 0.591635 11.9334 14.4529
O 6.66166 1.23474 17.701
O 0.695827 2.59575 10.0238
O 16.3636 13.3577 8.97751
O 14.5109 5.7044 5.30964
O 7.01153 6.87513 3.46765
O 13.4942 16.001 16.3339
O 6.81728 16.7246 7.11629
O 12.1766 16.2671 8.51227
O 0.139617 15.1471 10.1219
O 3.388 2.02318 3.70723
O 17.2524 15.274 3.24493
O 2.43557 4.99629 2.32258
O 15.8266 17.3043 14.4448
O 0.328139 11.6992 1.01564
O 12.7179 6.26117 12.2758
O 4.59195 6.48392 9.08935
O 9.83199 8.5925 2.13088
O 4.64567 7.32206 12.0328
O 11.9298 11.3316 6.67491
O 9.67904 15.7603 17.9148
O 11.502 12.8513 14.5519
O 10.6078 1.55386 4.14802
O 4.0009 6.71352 4.52523
O 9.30649 4.1746 5.10209
O 15.8864 0.16429 6.10519
O 8.83365 3.62542 0.371726
O 11.6722 0.779634 7.96887
O 8.20786 12.9816 10.963
O 18.0267 14.017 0.881611
O 5.31547 10.7956 11.6578
O 4.48856 2.41505 6.61127
O 10.2819 13.624 9.03465
O 11.5453 7.52267 9.95235
O 15.5453 11.396 3.76118
O 13.6708 2.71613 6.52326
O 10.2031 9.58112 11.754
O 15.5433 16.2959 0.906602
O 4.82794 11.3743 16.4077
O 3.62243 17.3778 5.27154
O 13.9112 14.1436 7.05872
O 6.70506 10.4539 9.28897
O 8.45587 3.39497 14.6051
O 15.2241 16.6095 8.42245
O 17.0815 17.6174 10.4387
O 6.101 15.4923 4.92532
O 2.39964 15.5807 0.222128
O 16.5233 2.93641 5.46136
O 14.5335 2.49565 3.5898
O 5.45568 13.8075 11.1209
O 16.1135 15.7449 11.6102
O 1.32195 4.37302 7.88867
O 5.86132 1.35886 4.93347
O 17.4869 7.71973 10.3869
O 8.62293 16.9071 12.8119
O 7.12486 16.384 17.9352
O 7.02545 7.71709 13.0613
O 0.643942 1.4726 3.2498
O 4.13415 14.4771 13.5081
O 12.3669 7.29815 0.532722
O 9.83933 6.04054 1.9218
O 4.58822 8.4202 16.5345
O 9.04934 12.8984 1.14272
O 17.7753 10.4251 4.7128
O 15.5636 10.3134 11.3603
O 7.06412 1.65166 2.62267
O 9.1267 10.8683 14.3371
O 1.51874 12.5263 16.7222
O 14.0752 9.51604 16.7689
O 11.8788 15.8194 3.85234
O 5.05902 4.4168 3.68201
O 7.437 0.647428 15.4249
O 5.28136 8.59403 10.8209
O 17.2177 9.03865 1.58432
O 4.20999 5.21264 15.512
O 1.27467 7.95508 8.60545
O 2.69067 12.5529 11.5651
O 13.9242 5.99473 17.171
O 14.8901 16.9646 3.36375
O 2.05462 16.9848 9.62744
O 11.2783 4.88002 10.4054
O 12.5624 12.4537 4.51288
O 13.7767 11.8382 1.3201
O 13.218 11.3979 15.9748
O 17.2734 13.8559 6.254
O 0.843216 2.81733 16.1274
O 14.1032 2.83299 16.6392
O 10.46 10.4084 5.32886
O 1.53853 13.5545 8.52713
O 15.2951 4.89753 11.086
O 3.05126 12.9747 0.287761
O 11.0569 12.4232 11.7048
O 17.9943 4.36699 3.12163
O 1.16437 9.55394 11.4175
O 14.9193 11.9718 6.23242
O 16.5489 3.07485 0.417417
O 5.4604 8.96529 14.6045
O 11.3384 3.36796 13.0671
O 16.5985 10.5605 17.4595
O 3.50129 15.3717 7.25547
O 13.9366 1.7867 13.008
O 9.4711 6.34605 12.7238
O 7.43902 6.27599 0.60369
O 10.3878 5.28823 15.4532
O 7.98236 14.3121 3.42934
O 11.4479 9.55872 18.0541
O 0.176336 16.8463 0.878931
O 13.9683 4.79649 8.81497
O 1.71442 14.8344 5.65073
O 13.8754 1.14019 0.588562
O 8.29831 16.2581 9.56656
O 16.0197 9.96775 8.58871
O 18.0962 11.9649 10.1845
O 8.93042 15.2536 6.63254
O 15.3374 9.43027 5.57058
O 6.97873 10.0989 2.35182
O 0.757308 4.48996 0.214442
O 6.2615 0.91326 8.12722
O 10.8997 2.53776 6.29424
O 11.6555 2.33857 1.43724
O 1.65881 6.94031 14.6608
O 3.03922 3.4182 17.7727
O 5.15937 16.0292 9.21113
O 8.06967 17.647 4.79555
O 11.5971 10.6735 2.34718
O 16.1786 3.03842 9.44007
O 16.9128 2.05211 12.3075
O 14.8065 6.90863 14.2286
O 3.22618 6.69508 0.141223
O 16.4763 3.85061 14.5186
O 1.55741 7.60877 4.33046
O 5.22415 13.0832 3.56309
O 16.1782 0.252558 1.48376
O 10.9577 10.193 14.8531
O 6.78901 5.8761 6.64789
O 15.3927 12.9164 17.8348
O 6.76946 8.38061 7.3695
O 11.7119 0.257821 17.0105
O 17.079 5.45181 8.26447
O 5.97797 3.53126 13.3042
O 17.1284 7.84143 13.0274
O 5.88842 16.9939 15.0814
O 6.97375 16.6063 2.22439
O 9.03822 11.2654 3.40549
O 4.06165 10.2502 1.395
O 4.99779 8.26025 2.18121
O 13.9611 13.0838 11.5842
O 5.68919 5.14166 10.9139
O 13.4396 0.164628 6.1932
O 14.7195 10.1969 13.6878
O 7.27379 12.484 16.7663
O 12.6895 17.9768 2.58392
O 9.24447 6.98024 5.65612
O 2.70906 10.1499 15.4891
O 10.3434 14.6736 12.3283
O 18.0204 1.64433 8.12542
O 2.03027 4.38532 5.08786
O 4.14642 1.90788 10.0765
O 14.2404 16.2649 5.57919
O 11.3756 14.9414 6.00196
O 14.6677 0.216226 10.8155
O 6.46025 3.46374 8.56754
O 2.26858 17.6476 1.96237
O 10.5091 17.4522 10.4887
O 8.29527 10.1688 17.9465
O 3.04186 15.6739 11.6047
O 5.60812 12.2834 0.536701
400
Atoms. Timestep: 2000
Ga 13.1884 9.96727 5.68975
Ga 11.1856 3.1373 15.6742
Ga 0.567428 3.69353 2.51633
Ga 7.1515 7.0936 15.0832
Ga 6.93237 8.40311 5.72545
Ga 3.27693 17.3864 14.2415
Ga 5.59675 15.858 16.3205
Ga 12.2437 4.47375 12.6517
Ga 14.5056 8.38096 11.4408
Ga 13.5702 0.513423 1.69728
Ga 14.2701 12.4244 17.9097
Ga 1.38615 14.3142 16.0609
Ga 5.25249 12.4276 7.4438
Ga 4.83913 6.56911 2.11115
Ga 13.5408 16.4943 10.9513
Ga 9.07576 15.1826 8.79986
Ga 4.33737 13.7705 2.80769
Ga 9.72492 1.77339 9.58847
Ga 17.6322 2.05006 13.6014
Ga 3.1045 11.3693 13.443
Ga 0.693028 5.65538 17.5728
Ga 5.66872 4.1016 16.1691
Ga 2.54919 1.4202 2.53528
Ga 9.34164 12.9165 15.5879
Ga 11.2428 11.2153 1.97916
Ga 12.1248 2.32412 7.14265
Ga 6.98764 13.1432 13.2302
Ga 17.6127 9.42425 14.5269
Ga 4.58882 0.739461 6.81298
Ga 0.314599 8.72062 11.3776
Ga 2.00975 0.566117 8.54722
Ga 18.1611 12.2021 6.64269
Ga 1.36817 2.63642 16.9735
Ga 10.7599 7.09843 10.9597
Ga 6.98655 17.324 9.00657
Ga 2.74919 5.5129 9.70062
Ga 6.92954 11.6031 4.8137
Ga 8.95081 10.0038 11.4469
Ga 1.7949 10.1441 16.6628
Ga 3.41207 9.80521 10.6803
Ga 17.006 12.4912 16.2363
Ga 15.4256 16.2965 3.00632
Ga 11.3184 17.5905 16.4868
Ga 16.5905 5.17913 4.52616
Ga 8.43492 11.8535 8.26312
Ga 7.48902 5.6962 3.46758
Ga 7.81074 9.9828 15.6192
Ga 13.0337 2.24842 10.5842
Ga 11.6553 14.6628 5.44622
Ga 10.5852 13.9395 1.09015
Ga 6.76465 8.3881 17.9713
Ga 6.26157 14.0317 10.299
Ga 14.9244 0.329873 13.8496
Ga 4.53839 1.48819 16.5151
Ga 9.06028 1.21882 16.5537
Ga 9.53981 13.0666 4.03907
Ga 11.3353 4.89728 7.15971
Ga 6.58442 3.94848 12.0701
Ga 16.5019 15.4574 11.6391
Ga 16.6915 11.0997 2.714
Ga 17.3548 16.569 15.6497
Ga 16.4345 6.45313 10.319
Ga 14.9456 11.8646 7.36266
Ga 14.88 3.88361 7.06201
Ga 6.79167 2.12822 0.465716
Ga 8.27411 18.0071 2.31181
Ga 8.94755 5.53056 5.80895
Ga 0.36288 14.5376 3.93212
Ga 10.184 7.45857 1.34185
Ga 7.17682 12.3433 0.333826
Ga 13.9395 6.1315 2.70576
Ga 5.11783 16.8188 1.40485
Ga 3.47312 6.67679 15.9457
Ga 7.71344 4.60976 9.15887
Ga 16.5916 7.62598 1.92602
Ga 13.0551 15.5019 0.466308
Ga 6.35302 3.38389 6.05633
Ga 14.8633 10.5716 13.638
Ga 4.32991 4.15954 3.6488
Ga 4.85144 10.7715 2.87509
Ga 5.63189 9.3704 12.8219
Ga 2.24655 10.1261 7.24372
Ga 12.1603 0.31207 4.59874
Ga 12.1193 10.9824 11.7516
Ga 4.03213 7.51955 7.44985
Ga 16.9558 13.8755 1.11813
Ga 10.4775 6.67761 16.7072
Ga 3.15435 3.33031 6.87889
Ga 7.7882 3.03442 3.24045
Ga 14.3838 17.461 7.07132
Ga 14.9938 14.2904 8.81323
Ga 13.4089 8.3501 17.978
Ga 16.9472 9.88379 17.6898
Ga 7.12542 7.01456 11.7074
Ga 1.81985 11.7457 1.43244
Ga 9.41182 4.3218 0.318435
Ga 12.3732 12.9399 15.1526
Ga 10.7182 2.48199 2.38025
Ga 13.6478 6.89391 5.7646
Ga 6.75068 18.0587 4.6299
Ga 16.1267 8.95491 8.82117
Ga 15.4408 2.04743 4.60045
Ga 18.1013 12.7117 13.0317
Ga 7.29106 1.88161 14.2124
Ga 16.4449 11.2001 10.7293
Ga 15.6492 0.790868 9.99305
Ga 0.880615 4.19353 11.7867
Ga 6.24384 1.83704 9.01569
Ga 13.4378 6.07204 9.42131
Ga 4.76261 9.75364 15.8773
Ga 17.7008 4.24605 15.1298
Ga 0.971214 9.89659 3.53452
Ga 11.9256 14.2049 10.3892
Ga 14.0491 13.3538 12.6694
Ga 6.32204 10.7686 10.4471
Ga 3.55405 4.05695 0.300122
Ga 3.44346 8.36989 0.671631
Ga 13.1625 10.3059 8.79769
Ga 8.63651 17.0963 11.9273
Ga 7.90581 15.2707 2.64865
Ga 9.40836 2.29709 6.46666
Ga 17.9282 4.37241 6.99317
Ga 7.66041 16.9663 14.849
Ga 16.439 3.71473 10.0652
Ga 2.8256 16.9878 17.7299
Ga 4.08456 6.08831 12.732
Ga 16.1718 9.57513 5.76103
Ga 8.30049 15.6174 5.64516
Ga 12.521 16.1379 13.7982
Ga 4.75869 15.288 5.87719
Ga 14.5243 14.8075 5.63352
Ga 2.10586 0.863134 11.7717
Ga 16.0898 6.70044 15.9338
Ga 3.52665 13.1195 10.9483
Ga 0.32755 7.39889 7.47923
Ga 11.1776 7.14864 4.42521
Ga 12.8574 3.813 0.460944
Ga 11.7292 10.4459 16.8635
Ga 15.9416 1.29108 17.0466
Ga 4.40173 12.8128 16.7458
Ga 10.2201 7.34936 13.7975
Ga 4.0654 14.3865 13.9135
Ga 14.1432 3.64538 15.1079
Ga 15.0011 5.65235 12.7365
Ga 17.5241 17.6335 0.625669
Ga 8.6992 8.06908 8.29498
Ga 5.25407 0.3875 11.6651
Ga 0.510103 13.3495 9.84399
Ga 11.2503 12.2277 6.66497
Ga 3.77309 16.1484 8.34211
Ga 1.15175 16.9919 6.31645
Ga 2.7933 12.1069 5.03845
Ga 8.64644 4.7619 14.7912
Ga 1.34138 15.5935 13.3438
Ga 13.3 7.57527 14.9807
Ga 8.05771 10.1246 2.84231
Ga 13.6037 12.5912 3.88976
Ga 8.90078 15.5839 17.4562
Ga 2.04878 6.59172 2.96243
Ga 16.8665 1.42952 7.54799
O 3.59061 13.8988 4.5409
O 12.1327 3.45344 14.2104
O 5.59263 0.980287 10.3138
O 16.7509 16.9011 14.1182
O 7.84616 13.7166 8.87008
O 5.06462 14.2313 15.6046
O 3.36979 0.233889 16.0219
O 13.4008 4.58267 2.00942
O 4.20888 3.72614 5.54227
O 2.08038 5.33239 11.2411
O 7.0045 5.39481 15.4095
O 10.0106 14.2742 5.31351
O 1.94771 7.93682 7.22179
O 8.08635 6.91841 4.86389
O 3.72146 0.574762 12.4642
O 6.03464 11.4529 6.60449
O 14.5276 10.1111 7.23096
O 2.6035 14.0544 16.887
O 7.70262 0.708549 8.58754
O 17.6593 13.8697 2.64086
O 17.6951 6.14057 16.1156
O 12.7824 6.54448 4.21623
O 2.8895 9.98062 8.78787
O 3.70591 11.6767 6.60702
O 15.996 6.06648 2.98127
O 1.14875 2.40864 12.3257
O 0.531281 11.1796 2.37908
O 1.88879 17.5673 12.8909
O 13.4697 9.08604 12.671
O 6.51368 9.69144 14.2374
O 5.212 7.89144 6.36154
O 14.5914 15.0951 12.3914
O 9.71092 12.1362 7.22298
O 14.6441 7.32841 16.6304
O 12.877 5.26541 7.28091
O 13.8257 4.81198 13.6145
O 2.22838 0.718567 10.0813
O 0.85938 8.13562 2.94609
O 6.30368 1.03608 12.8308
O 0.929904 12.9345 4.83379
O 17.9804 14.5831 12.3479
O 8.08259 1.00635 17.9302
O 11.749 6.38319 9.71054
O 8.35954 3.30731 1.50578
O 6.91844 3.50375 17.4859
O 7.6642 5.92975 10.6561
O 10.0635 4.70787 16.7507
O 7.87086 12.9991 14.7018
O 3.7663 16.069 13.7915
O 9.53402 8.49906 9.81842
O 10.6079 5.99851 5.73593
O 16.7251 17.7308 16.9942
O 16.8918 8.24061 6.89375
O 11.6862 7.13907 15.1011
O 5.266 5.06688 12.492
O 17.02 6.69506 0.546074
O 0.80799 16.8021 17.6883
O 13.83 14.2449 4.02269
O 10.6168 13.1773 2.56575
O 1.65076 10.8352 5.71298
O 16.235 1.38542 13.0199
O 12.5627 14.252 13.7317
O 8.11975 1.4645 5.95733
O 10.0663 14.1561 17.1864
O 0.791826 3.09566 6.34392
O 0.424611 0.34438 7.19572
O 0.461058 9.6554 15.9359
O 4.67388 15.4633 2.5835
O 2.76265 10.2446 3.31555
O 4.53101 16.375 17.5866
O 8.74677 3.08405 9.10224
O 15.8481 12.8593 12.773
O 16.2818 7.74138 11.2553
O 1.56866 11.4316 13.9721
O 5.40687 1.7209 0.343333
O 18.1246 4.47297 10.031
O 0.620261 12.5743 8.2513
O 15.3254 5.47634 5.80296
O 6.27275 5.98238 2.62743
O 11.8812 16.4568 15.1115
O 5.14329 17.6353 8.52087
O 13.5534 14.8049 9.73766
O 16.6173 14.2875 9.65672
O 3.79627 2.71498 2.80519
O 15.3087 16.4654 5.01944
O 4.55128 4.81987 1.71035
O 10.8362 1.42167 16.4625
O 15.8808 11.4531 17.1264
O 13.6242 7.07255 11.1326
O 4.45365 6.48439 8.91473
O 7.4725 8.59942 1.61421
O 3.64873 6.28911 14.5009
O 12.2263 11.0309 7.35689
O 9.49499 15.6154 1.47926
O 10.9699 12.0731 15.6594
O 9.22698 1.79149 3.09569
O 6.63099 9.85306 4.29153
O 10.6949 3.34915 7.13986
O 15.866 2.05125 6.31977
O 9.20139 3.22744 15.1697
O 13.6336 0.70359 10.3706
O 7.23697 13.3067 11.8052
O 17.7059 13.9546 17.5762
O 7.25566 9.96628 11.9424
O 3.29031 1.45956 7.48897
O 10.5708 14.4565 9.34482
O 12.6093 10.6271 10.4013
O 15.1115 11.7772 2.77958
O 13.511 3.22084 6.66527
O 10.2802 10.7224 11.8387
O 14.0583 15.9281 1.55459
O 5.5366 13.0029 18.0414
O 3.5787 16.5583 6.42532
O 14.7732 11.8463 9.06419
O 7.97023 10.5963 9.68892
O 7.6501 3.46352 13.2426
O 13.1391 0.808992 6.2057
O 15.449 0.295625 8.18525
O 6.05613 16.2728 5.38005
O 1.22818 15.7284 14.9789
O 16.0006 3.38011 3.84436
O 13.8072 1.94021 0.718787
O 5.49223 12.2736 9.8036
O 15.8793 16.6622 11.04
O 2.87691 4.84119 8.05228
O 5.60826 0.948971 5.562
O 17.6168 7.28033 9.09561
O 8.19254 16.5798 13.3264
O 7.56597 15.7858 16.2355
O 7.65965 7.20423 13.2677
O 0.902544 1.87082 3.04711
O 4.96146 13.1664 13.0456
O 14.188 7.53581 1.77344
O 9.62054 6.0972 0.552638
O 3.15651 8.66491 16.3047
O 7.9707 13.5452 1.58239
O 16.9858 9.79778 3.92803
O 15.532 10.4378 11.9488
O 6.83502 1.00865 2.72454
O 8.90768 8.94087 16.7732
O 17.7128 13.1665 15.2153
O 12.9504 9.47178 16.5568
O 11.6481 16.5956 4.92874
O 6.52756 3.5273 4.16483
O 8.12142 0.681298 14.9963
O 5.06304 9.87255 11.0506
O 16.5942 9.36266 0.991676
O 4.56438 4.97785 17.0628
O 17.8383 5.61832 5.82419
O 3.24601 11.7089 11.6039
O 16.0572 4.33554 15.2369
O 14.6767 17.82 2.75208
O 2.12494 16.8315 8.05566
O 8.75667 6.19417 7.75374
O 13.7063 11.5004 5.11651
O 12.2439 10.6051 0.639797
O 12.5916 13.7683 0.519784
O 15.4889 13.7998 7.11615
O 18.0892 1.92254 15.3803
O 12.995 3.77437 16.6502
O 12.0341 8.34026 5.37981
O 1.98206 13.8111 10.2587
O 16.1556 5.12498 11.591
O 0.296836 11.4369 17.6042
O 12.2558 12.9489 11.4406
O 1.21551 5.10431 2.92886
O 1.86021 8.79587 11.0721
O 16.7229 11.1149 6.39295
O 14.7603 1.71726 15.4906
O 4.163 10.1145 13.6568
O 11.0611 5.83421 12.7016
O 13.2889 12.2694 16.4492
O 4.9843 14.4663 7.48572
O 12.1568 3.47916 11.4675
O 10.1247 8.21594 12.3556
O 6.58517 8.42467 15.9704
O 9.33798 6.36508 14.8778
O 8.03886 14.0982 4.2075
O 9.7697 10.4143 1.98073
O 16.9043 16.574 1.77457
O 14.3765 9.06071 9.48532