#Cristabolite Melt Quench

432 atoms
2 atom types

0.0   15.157  xlo xhi
0.0   15.157  ylo yhi
0.0   21.230  zlo zhi

Masses

1 28.09000
2 16.00000

Atoms

1	1	0	1.411735569	1.418907437	-0.082218616
2	2	0	1.183165526	0.373869381	1.116907191
3	1	0	3.523153993	3.531449182	3.449919557
4	1	0	0.988961512	3.947992796	1.6951618
5	1	0	3.940154808	1.003797522	5.208030278
6	2	0	3.785417212	4.551998271	4.663353217
7	2	0	2.026398928	3.719740311	2.899151003
8	2	0	2.909015675	1.256610073	6.412962814
9	2	0	1.243009777	2.906490527	0.499078605
10	2	0	3.682237999	2.028683456	3.997418245
11	2	0	0.37718789	1.192590311	5.787818371
12	2	0	4.55051225	3.787158656	2.240633144
13	1	0	6.471905527	1.409722203	-0.077555871
14	2	0	6.250022695	0.380555208	1.135411988
15	1	0	8.573483627	3.516873487	3.443471197
16	1	0	6.049444638	3.944553598	1.682285897
17	1	0	8.992886676	0.997064425	5.212266133
18	2	0	8.842534902	4.540837429	4.651745452
19	2	0	7.075426043	3.701299942	2.893902399
20	2	0	7.960605947	1.244750243	6.417882228
21	2	0	6.296907214	2.905746319	0.481395439
22	2	0	8.72952302	2.018639378	4.001290035
23	2	0	5.433172027	1.191650577	5.77083515
24	2	0	9.599402611	3.758476282	2.230165191
25	1	0	11.5136261	1.407430121	-0.09102437
26	2	0	11.23726588	0.378188844	1.112144575
27	1	0	13.60923264	3.525293866	3.460218145
28	1	0	11.0943623	3.941769879	1.669217543
29	1	0	14.04241231	0.995487809	5.224907121
30	2	0	13.83997843	4.552288094	4.673302629
31	2	0	12.12273672	3.713985853	2.882268385
32	2	0	13.00813479	1.212641898	6.434539116
33	2	0	11.36723737	2.90388725	0.474008123
34	2	0	13.76942877	2.026456566	4.020889555
35	2	0	10.4844736	1.189584041	5.777315616
36	2	0	14.65511077	3.77867636	2.267122156
37	1	0	1.403772202	6.463404306	-0.091670478
38	2	0	1.151527083	5.437525847	1.118065903
39	1	0	3.514254089	8.57265366	3.446229851
40	1	0	0.986401475	8.987730533	1.677582171
41	1	0	3.944803267	6.053210937	5.215469278
42	2	0	3.732881942	9.60503828	4.65889311
43	2	0	2.018392885	8.715626795	2.878435689
44	2	0	2.903942017	6.315906771	6.411490915
45	2	0	1.208249721	7.957862345	0.464622861
46	2	0	3.710696601	7.077463672	4.000192712
47	2	0	0.375630352	6.194591167	5.783221834
48	2	0	4.547270759	8.844663599	2.245137114
49	1	0	6.475480003	6.47673984	-0.081545654
50	2	0	6.239487552	5.434889826	1.116823268
51	1	0	8.565736553	8.565524977	3.458938071
52	1	0	6.048465117	9.004245492	1.693449927
53	1	0	8.987734977	6.036419486	5.219278092
54	2	0	8.843647222	9.592580644	4.66143637
55	2	0	7.069901858	8.767041676	2.909890746
56	2	0	7.959591023	6.255722305	6.434705318
57	2	0	6.309831513	7.965840984	0.496177639
58	2	0	8.710764004	7.067409785	4.019232762
59	2	0	5.43639825	6.231627852	5.780762295
60	2	0	9.593468948	8.788532449	2.244721402
61	1	0	11.51053808	6.473842405	-0.105457926
62	2	0	11.24822464	5.432122519	1.089288399
63	1	0	13.61498779	8.57167555	3.448194195
64	1	0	11.08373368	8.982594626	1.678649156
65	1	0	14.03332941	6.048614317	5.22534417
66	2	0	13.84017044	9.605231806	4.657336967
67	2	0	12.12112621	8.725256753	2.878239115
68	2	0	13.00584331	6.317797257	6.432287115
69	2	0	11.33418201	7.964127357	0.463799821
70	2	0	13.80022769	7.07805793	4.012765899
71	2	0	10.48397273	6.235568905	5.769278399
72	2	0	14.64883764	8.840427243	2.247369978
73	1	0	1.410030017	11.51390887	-0.091406477
74	2	0	1.186507835	10.48075333	1.11880006
75	1	0	3.527224635	13.62609756	3.446583507
76	1	0	0.994378998	14.03896903	1.681186344
77	1	0	3.936297215	11.09808328	5.218884488
78	2	0	3.776193331	14.66190528	4.65115548
79	2	0	2.027217247	13.77360026	2.885186536
80	2	0	2.904527849	11.37119547	6.420195815
81	2	0	1.217232646	13.00630626	0.470965409
82	2	0	3.718622925	12.1331547	4.009196297
83	2	0	0.378514496	11.24671437	5.775942771
84	2	0	4.552413817	13.8897557	2.237279271
85	1	0	6.470324437	11.52067163	-0.086186065
86	2	0	6.233416031	10.49416015	1.125070724
87	1	0	8.573434089	13.61022917	3.461493765
88	1	0	6.055001365	14.04202485	1.686449516
89	1	0	8.992863157	11.08201822	5.242054137
90	2	0	8.837084379	14.65577595	4.653560038
91	2	0	7.077035797	13.77313359	2.897218007
92	2	0	7.954656317	11.30723274	6.446552817
93	2	0	6.299386777	13.01715957	0.47294202
94	2	0	8.731831129	12.12412884	4.048531606
95	2	0	5.431968405	11.24579247	5.788183835
96	2	0	9.603281416	13.83513546	2.247447519
97	1	0	11.51412867	11.51358208	-0.081629717
98	2	0	11.23892764	10.48261404	1.120949687
99	1	0	13.62634674	13.63262347	3.453029993
100	1	0	11.09533876	14.04127772	1.685971295
101	1	0	14.03594424	11.09847069	5.216475167
102	2	0	13.8955523	14.65584182	4.66135485
103	2	0	12.13105594	13.82541018	2.896026045
104	2	0	13.01614371	11.36051877	6.428527005
105	2	0	11.37045518	13.00970806	0.485645433
106	2	0	13.78477872	12.1327302	4.010773096
107	2	0	10.48360924	11.25570817	5.813609373
108	2	0	14.6555433	13.88629481	2.245721818
109	1	0	1.419666149	1.420711736	6.990081684
110	2	0	1.190365359	0.377479607	8.190598759
111	1	0	3.518337091	3.516559391	10.53466188
112	1	0	0.999694346	3.948616362	8.766443288
113	1	0	3.932714451	0.988664771	12.29974767
114	2	0	3.793656483	4.545528725	11.73801433
115	2	0	2.023154116	3.714696536	9.981852582
116	2	0	2.900949334	1.210054892	13.51197798
117	2	0	1.257106622	2.909153115	7.569748109
118	2	0	3.661610018	2.019271432	11.0979747
119	2	0	0.377668408	1.196905549	12.85932139
120	2	0	4.549485427	3.73613818	9.321659808
121	1	0	6.466597923	1.419745225	6.979792944
122	2	0	6.206263042	0.379095129	8.174625441
123	1	0	8.570643741	3.521424902	10.52740322
124	1	0	6.041693017	3.938278764	8.761052046
125	1	0	8.987136901	0.998169759	12.29565931
126	2	0	8.839900501	4.549417132	11.73400164
127	2	0	7.077063806	3.719094365	9.969781058
128	2	0	7.955594662	1.244683249	13.50276489
129	2	0	6.312956507	2.910902856	7.556321298
130	2	0	8.71733745	2.022711094	11.08812205
131	2	0	5.426762221	1.191743384	12.85629063
132	2	0	9.604433751	3.743814362	9.317457205
133	1	0	11.51428984	1.410798482	6.990882425
134	2	0	11.24151301	0.381508259	8.19456851
135	1	0	13.62391098	3.529233632	10.52575254
136	1	0	11.09678531	3.940991361	8.755590819
137	1	0	14.04285359	1.006905678	12.29486533
138	2	0	13.88517505	4.549027811	11.73921457
139	2	0	12.13008006	3.72117937	9.966416725
140	2	0	13.00981437	1.254039871	13.50023417
141	2	0	11.36851389	2.907508426	7.556082791
142	2	0	13.77812626	2.027540141	11.08082626
143	2	0	10.48095888	1.191988732	12.85506393
144	2	0	14.65721623	3.783766399	9.320622844
145	1	0	1.409468131	6.466409254	6.982761766
146	2	0	1.186376412	5.437285494	8.195075284
147	1	0	3.513414318	8.556579534	10.5159794
148	1	0	0.986126229	8.991359153	8.754106973
149	1	0	3.940563037	6.044198006	12.29952296
150	2	0	3.785949513	9.598463612	11.70787203
151	2	0	2.016910905	8.72718796	9.957906876
152	2	0	2.912946109	6.278934907	13.51123215
153	2	0	1.211537394	7.95873685	7.543982864
154	2	0	3.666065369	7.066327157	11.09228893
155	2	0	0.383663907	6.193806153	12.89001724
156	2	0	4.541670048	8.779102137	9.302110975
157	1	0	6.466096855	6.459175118	6.990905267
158	2	0	6.187632075	5.435637086	8.197292706
159	1	0	8.557103984	8.573872704	10.53455667
160	1	0	6.038926641	8.978171615	8.755954853
161	1	0	8.989949054	6.048921312	12.29434204
162	2	0	8.784551068	9.60159693	11.74802767
163	2	0	7.064039168	8.730501199	9.966214723
164	2	0	7.958915777	6.295116405	13.5022076
165	2	0	6.317803912	7.959460758	7.545849246
166	2	0	8.726006688	7.074734139	11.08655544
167	2	0	5.433978277	6.249299224	12.85449152
168	2	0	9.597246955	8.843826629	9.339611771
169	1	0	11.50449541	6.474850896	6.986437305
170	2	0	11.24452659	5.435101498	8.183841436
171	1	0	13.62390468	8.569449062	10.53146713
172	1	0	11.09310133	8.990604506	8.771306893
173	1	0	14.05398565	6.043256566	12.30509906
174	2	0	13.84309313	9.609714126	11.73602176
175	2	0	12.1252183	8.709734952	9.969664933
176	2	0	13.00995368	6.302523309	13.49834131
177	2	0	11.31431904	7.964082419	7.556078615
178	2	0	13.83029349	7.078525457	11.09560364
179	2	0	10.48372083	6.242533758	12.85187982
180	2	0	14.64859461	8.842114483	9.323666576
181	1	0	1.406148515	11.51661931	6.982729788
182	2	0	1.181151451	10.4835638	8.192384312
183	1	0	3.526742709	13.62205298	10.52080374
184	1	0	0.995082761	14.04360529	8.755335458
185	1	0	3.950392046	11.08951957	12.28216233
186	2	0	3.782303003	14.65116336	11.72925907
187	2	0	2.0274838	13.77543714	9.959141112
188	2	0	2.908988916	11.32780024	13.48118865
189	2	0	1.209484772	13.00830128	7.545664148
190	2	0	3.713338042	12.1280053	11.08021779
191	2	0	0.378337679	11.24557593	12.86537433
192	2	0	4.551885459	13.88240505	9.31158389
193	1	0	6.45875929	11.5020143	6.998068138
194	2	0	6.190174339	10.48138831	8.209179364
195	1	0	8.569421044	13.62368672	10.53306508
196	1	0	6.048532103	14.0460843	8.750583603
197	1	0	8.978072899	11.09558507	12.30660872
198	2	0	8.83703236	14.65592606	11.73623623
199	2	0	7.078640873	13.81863578	9.963986571
200	2	0	7.960362206	11.36061602	13.52113866
201	2	0	6.307085914	13.00334859	7.553889032
202	2	0	8.719873825	12.12806801	11.10188069
203	2	0	5.440202797	11.26155568	12.85789584
204	2	0	9.606923653	13.84580053	9.327107051
205	1	0	11.52666482	11.51623641	7.006789678
206	2	0	11.29708302	10.48580367	8.218358725
207	1	0	13.63272524	13.63783543	10.53217302
208	1	0	11.09914545	14.04457413	8.767018243
209	1	0	14.04041181	11.10299262	12.29525018
210	2	0	13.88965962	14.66238173	11.74344528
211	2	0	12.13528327	13.81945664	9.975345541
212	2	0	13.00857676	11.37211627	13.49686776
213	2	0	11.36337248	13.01299515	7.564948676
214	2	0	13.81616914	12.13981917	11.08686542
215	2	0	10.48077332	11.24495168	12.85982035
216	2	0	14.65669473	13.8973028	9.322236685
217	1	0	1.408466531	1.407506941	14.07461605
218	2	0	1.138785444	0.368321216	15.27164145
219	1	0	3.531309851	3.518931435	17.61652948
220	1	0	1.003566102	3.93094421	15.85949253
221	1	0	3.940437709	0.989691482	19.38217206
222	2	0	3.784921403	4.552102217	18.82210676
223	2	0	2.026560227	3.670337375	17.07153032
224	2	0	2.904481369	1.262460451	20.57851418
225	2	0	1.258640915	2.899115123	14.65397672
226	2	0	3.726215038	2.023928563	18.17134202
227	2	0	0.373502023	1.183311953	19.94483518
228	2	0	4.546277297	3.781890872	16.39836858
229	1	0	6.46102908	1.424744468	14.06405769
230	2	0	6.19863474	0.391670909	15.26509914
231	1	0	8.567327533	3.529400711	17.60447112
232	1	0	6.041929511	3.952839772	15.8357687
233	1	0	8.989055244	1.004270955	19.37042466
234	2	0	8.830893409	4.555299779	18.81326413
235	2	0	7.073066347	3.720935759	17.04611363
236	2	0	7.963061695	1.256496931	20.57964725
237	2	0	6.306622715	2.918130354	14.63526812
238	2	0	8.721589288	2.029162379	18.16135247
239	2	0	5.431985152	1.135893192	19.96104524
240	2	0	9.598546248	3.776144359	16.39712938
241	1	0	11.5148418	1.421278997	14.06343958
242	2	0	11.25940215	0.381263391	15.26160599
243	1	0	13.61536521	3.521965063	17.61037962
244	1	0	11.09295858	3.949151975	15.83368063
245	1	0	14.04114961	0.988901826	19.37249862
246	2	0	13.84991587	4.546317035	18.82448441
247	2	0	12.12651986	3.71291212	17.03977205
248	2	0	13.00667684	1.205004645	20.58322161
249	2	0	11.35526283	2.912977817	14.63541966
250	2	0	13.77176307	2.023435726	18.17116447
251	2	0	10.48422798	1.190418039	19.92711315
252	2	0	14.66040444	3.774383663	16.41484056
253	1	0	1.423451555	6.452314071	14.08579734
254	2	0	1.192027492	5.425786212	15.30009271
255	1	0	3.521161311	8.568924902	17.60905121
256	1	0	1.000180466	8.987348446	15.8401461
257	1	0	3.943655429	6.050647863	19.38252271
258	2	0	3.764809003	9.602358419	18.81547072
259	2	0	2.021887171	8.723815307	17.05183156
260	2	0	2.902701702	6.308357682	20.58071149
261	2	0	1.253017284	7.951989795	14.6373437
262	2	0	3.707605911	7.074560742	18.16744272
263	2	0	0.381749728	6.192410386	19.93251345
264	2	0	4.546596264	8.829150026	16.39939018
265	1	0	6.4651417	6.478605196	14.06488274
266	2	0	6.198621134	5.445097975	15.26490309
267	1	0	8.572762857	8.585666974	17.60274667
268	1	0	6.043106749	9.003716584	15.8408879
269	1	0	8.98961378	6.057797776	19.3622015
270	2	0	8.839456525	9.60799497	18.81466238
271	2	0	7.076309798	8.775766871	17.04973449
272	2	0	7.965344375	6.312348444	20.57360962
273	2	0	6.311700211	7.970850315	14.63966041
274	2	0	8.722896982	7.082264004	18.1527178
275	2	0	5.432915562	6.236953616	19.95328512
276	2	0	9.604283849	8.836635415	16.39505445
277	1	0	11.51528676	6.475113105	14.06048772
278	2	0	11.25067903	5.441514013	15.26160294
279	1	0	13.62875799	8.565501178	17.60049563
280	1	0	11.10420492	8.993654084	15.837566
281	1	0	14.04183421	6.043542442	19.37270667
282	2	0	13.86967077	9.592210925	18.81131122
283	2	0	12.12888272	8.721696103	17.04511281
284	2	0	13.01150205	6.314758433	20.57563218
285	2	0	11.357105	7.968476225	14.62778055
286	2	0	13.81898365	7.070281217	18.15689962
287	2	0	10.48874073	6.241340018	19.90950907
288	2	0	14.65562822	8.836867875	16.39352084
289	1	0	1.421761234	11.50453863	14.05987361
290	2	0	1.193026935	10.47977782	15.27639041
291	1	0	3.516151292	13.62386757	17.60619024
292	1	0	0.991121966	14.02497156	15.82926325
293	1	0	3.942936244	11.09824939	19.37470916
294	2	0	3.739054522	14.65617223	18.81774797
295	2	0	2.020621811	13.77457879	17.03791948
296	2	0	2.905317265	11.36534435	20.57216018
297	2	0	1.259032534	13.0034738	14.61770444
298	2	0	3.716412168	12.13001589	18.16373492
299	2	0	0.377062429	11.24790608	19.93896654
300	2	0	4.545242745	13.89220351	16.40246584
301	1	0	6.459787414	11.525808	14.07123286
302	2	0	6.198100415	10.49846706	15.27648347
303	1	0	8.566881784	13.63557254	17.60763856
304	1	0	6.039174593	14.0573716	15.83636273
305	1	0	8.992610173	11.10884596	19.37131715
306	2	0	8.830523323	14.66053792	18.81753526
307	2	0	7.073622008	13.82370501	17.04400936
308	2	0	7.963393931	11.35763156	20.57887404
309	2	0	6.286839397	13.02122549	14.63282044
310	2	0	8.723547665	12.13438856	18.16248099
311	2	0	5.435578977	11.25343268	19.94703443
312	2	0	9.598796433	13.88734869	16.40334033
313	1	0	11.51221134	11.5174634	14.0633724
314	2	0	11.29430768	10.48763013	15.27778257
315	1	0	13.62236518	13.61205745	17.60078647
316	1	0	11.09052522	14.04566053	15.83055869
317	1	0	14.03609195	11.08367064	19.38181132
318	2	0	13.89205641	14.65454219	18.79398749
319	2	0	12.13005414	13.78946238	17.02992106
320	2	0	13.0086138	11.31432824	20.59515988
321	2	0	11.31375171	13.01056741	14.62232745
322	2	0	13.77264884	12.12299789	18.18504394
323	2	0	10.48538776	11.2984833	19.93479985
324	2	0	14.6555185	13.83141914	16.39003666